/*--------------------------------*- C++ -*----------------------------------*\
| =========                 |                                                 |
| \\      /  F ield         | OpenFOAM: The Open Source CFD Toolbox           |
|  \\    /   O peration     | Version:  2306                                  |
|   \\  /    A nd           | Website:  www.openfoam.com                      |
|    \\/     M anipulation  |                                                 |
\*---------------------------------------------------------------------------*/
FoamFile
{
    version     2.0;
    format      ascii;
    arch        "LSB;label=32;scalar=64";
    class       volScalarField;
    location    "3.3";
    object      p;
}
// * * * * * * * * * * * * * * * * * * * * * * * * * * * * * * * * * * * * * //

dimensions      [0 2 -2 0 0 0 0];

internalField   nonuniform List<scalar> 
288632
(
58.0125
58.0041
58.0147
58.037
58.0682
58.1062
58.1546
58.187
58.2695
58.2644
58.3705
58.3654
58.4061
-1.36865
-1.27088
-1.34846
-1.11427
-1.09028
-0.928684
-0.799348
-0.659051
-0.514835
-0.368515
-0.221496
-0.073981
58.0057
58.0025
58.014
58.0364
58.0676
58.1058
58.1543
58.1869
58.2693
58.2648
58.3702
58.3649
58.4064
-1.36928
-1.27174
-1.35002
-1.11544
-1.09147
-0.929743
-0.800226
-0.659777
-0.5154
-0.368919
-0.221738
-0.0740626
58.0033
58.0007
58.0126
58.035
58.0664
58.1046
58.1532
58.1864
58.2687
58.2657
58.37
58.3652
58.4076
-1.3717
-1.27473
-1.35306
-1.11807
-1.09393
-0.931865
-0.802026
-0.661253
-0.516548
-0.369737
-0.222228
-0.074226
57.9995
57.9981
58.0105
58.0331
58.0645
58.1029
58.1516
58.1855
58.2677
58.2668
58.3694
58.3663
58.4091
-1.37591
-1.27906
-1.35755
-1.12198
-1.09758
-0.935017
-0.804713
-0.663456
-0.51826
-0.370958
-0.22296
-0.0744697
57.9961
57.9952
58.0078
58.0305
58.062
58.1005
58.1494
58.1842
58.2663
58.2681
58.3686
58.3677
58.4109
-1.38176
-1.28502
-1.36345
-1.12719
-1.1024
-0.939166
-0.808252
-0.666356
-0.520514
-0.372565
-0.223923
-0.0747903
57.9925
57.992
58.0047
58.0275
58.059
58.0976
58.1466
58.1826
58.2646
58.2693
58.3682
58.3695
58.4131
-1.38912
-1.2923
-1.37065
-1.13357
-1.10829
-0.94425
-0.812593
-0.669913
-0.523279
-0.374538
-0.225105
-0.0751837
57.9887
57.9884
58.0012
58.0239
58.0554
58.0942
58.1434
58.1806
58.2625
58.2702
58.3684
58.3718
58.4158
-1.39787
-1.30093
-1.37907
-1.14107
-1.11519
-0.950201
-0.817674
-0.674077
-0.526518
-0.376848
-0.226489
-0.0756445
57.9848
57.9846
57.9973
58.02
58.0514
58.0903
58.1397
58.1783
58.2603
58.2712
58.3688
58.3746
58.419
-1.40788
-1.31067
-1.38856
-1.14955
-1.12299
-0.956934
-0.823423
-0.678791
-0.530183
-0.379463
-0.228057
-0.0761664
57.9808
57.9805
57.9932
58.0157
58.0471
58.086
58.1356
58.1757
58.2579
58.2723
58.3697
58.378
58.4231
-1.41897
-1.32142
-1.399
-1.15889
-1.13157
-0.964351
-0.829758
-0.683987
-0.534224
-0.382347
-0.229785
-0.0767419
57.9766
57.9763
57.9888
58.0112
58.0424
58.0814
58.1313
58.1729
58.2554
58.2736
58.3712
58.3823
58.428
-1.43097
-1.333
-1.41022
-1.16895
-1.14081
-0.972342
-0.836584
-0.689587
-0.538582
-0.385457
-0.23165
-0.0773628
57.9725
57.972
57.9843
58.0064
58.0375
58.0765
58.1267
58.1699
58.2529
58.2752
58.3733
58.3874
58.4342
-1.44368
-1.34523
-1.42204
-1.17958
-1.15057
-0.980786
-0.843801
-0.69551
-0.543191
-0.388747
-0.233623
-0.07802
57.9682
57.9676
57.9797
58.0016
58.0324
58.0714
58.1219
58.1669
58.2504
58.2772
58.3763
58.3938
58.4416
-1.45691
-1.3579
-1.4343
-1.19061
-1.16069
-0.989554
-0.851298
-0.701665
-0.547983
-0.392169
-0.235675
-0.0787035
57.9641
57.9633
57.9751
57.9967
58.0273
58.0663
58.1171
58.1639
58.2481
58.2796
58.3802
58.4015
58.4507
-1.47044
-1.37082
-1.44678
-1.20186
-1.17102
-0.99851
-0.858959
-0.707958
-0.552883
-0.395669
-0.237775
-0.0794029
57.9601
57.9591
57.9706
57.9919
58.0222
58.0612
58.1123
58.161
58.246
58.2826
58.3852
58.4106
58.4615
-1.48406
-1.38378
-1.4593
-1.21316
-1.1814
-1.00751
-0.866663
-0.714289
-0.557815
-0.399192
-0.239888
-0.0801072
57.9562
57.9551
57.9663
57.9872
58.0172
58.0562
58.1077
58.1583
58.2443
58.2861
58.3915
58.4212
58.474
-1.49754
-1.39658
-1.47165
-1.22433
-1.19165
-1.01641
-0.874288
-0.720557
-0.562699
-0.402682
-0.241983
-0.0808052
57.9526
57.9513
57.9621
57.9827
58.0124
58.0514
58.1032
58.1558
58.2429
58.2902
58.3989
58.4331
58.4883
-1.51068
-1.40901
-1.48363
-1.23518
-1.20162
-1.02508
-0.881708
-0.72666
-0.567457
-0.406082
-0.244023
-0.0814855
57.9493
57.9478
57.9583
57.9785
58.0079
58.0468
58.0991
58.1536
58.2419
58.2948
58.4074
58.4462
58.5041
-1.52326
-1.42087
-1.49506
-1.24555
-1.21114
-1.03335
-0.888803
-0.732497
-0.572009
-0.409337
-0.245977
-0.0821368
57.9465
57.9447
57.9548
57.9746
58.0037
58.0426
58.0952
58.1517
58.2412
58.2997
58.4167
58.4603
58.5211
-1.53508
-1.43197
-1.50573
-1.25525
-1.22005
-1.04111
-0.895454
-0.737971
-0.576279
-0.41239
-0.24781
-0.0827481
57.9441
57.942
57.9517
57.9711
58
58.0389
58.0918
58.1502
58.241
58.3047
58.4265
58.4747
58.5388
-1.54595
-1.44215
-1.51549
-1.26414
-1.22821
-1.04822
-0.901549
-0.74299
-0.580195
-0.415191
-0.249492
-0.083309
57.9422
57.9398
57.949
57.968
57.9966
58.0355
58.0889
58.149
58.241
58.3097
58.4364
58.4891
58.5565
-1.55572
-1.45121
-1.52415
-1.27207
-1.23547
-1.05455
-0.906984
-0.747467
-0.583689
-0.417691
-0.250993
-0.0838097
57.9411
57.9381
57.9468
57.9655
57.9938
58.0327
58.0864
58.148
58.2413
58.3144
58.4458
58.5027
58.5734
-1.56422
-1.45908
-1.5316
-1.27891
-1.24173
-1.06001
-0.911668
-0.751326
-0.586702
-0.419846
-0.252288
-0.0842414
57.9405
57.9369
57.9451
57.9634
57.9916
58.0305
58.0844
58.1474
58.2416
58.3185
58.4542
58.5149
58.5887
-1.57133
-1.46556
-1.53769
-1.28454
-1.24686
-1.06449
-0.915517
-0.754499
-0.589179
-0.421619
-0.253353
-0.0845964
57.9418
57.9363
57.9439
57.9619
57.9899
58.0288
58.0829
58.1469
58.242
58.3218
58.461
58.525
58.6014
-1.57696
-1.47069
-1.54234
-1.28889
-1.2508
-1.06793
-0.918471
-0.756932
-0.591078
-0.422978
-0.254169
-0.0848683
57.9418
57.9358
57.943
57.9609
57.9888
58.0276
58.082
58.1467
58.2424
58.3242
58.4658
58.5324
58.6109
-1.58101
-1.47408
-1.54547
-1.29184
-1.25346
-1.07025
-0.920473
-0.758581
-0.592365
-0.423898
-0.254721
-0.0850522
57.9474
57.9364
57.9427
57.9605
57.9883
58.0272
58.0816
58.1467
58.2427
58.3257
58.4688
58.536
58.6167
-1.58339
-1.47643
-1.54701
-1.29345
-1.25484
-1.07141
-0.921501
-0.759421
-0.59302
-0.424366
-0.255002
-0.0851444
58.0045
58.0011
58.0126
58.0349
58.066
58.104
58.1524
58.1849
58.2671
58.2625
58.3677
58.3629
58.4048
-1.37291
-1.27544
-1.35301
-1.11785
-1.09289
-0.930817
-0.800617
-0.659798
-0.515201
-0.368641
-0.221504
-0.0739609
57.9976
57.9992
58.012
58.0342
58.0655
58.1036
58.152
58.1848
58.2669
58.2642
58.3641
58.3624
58.4054
-1.37362
-1.27632
-1.3546
-1.11905
-1.0941
-0.931896
-0.80151
-0.660535
-0.515775
-0.36905
-0.22175
-0.0740436
57.9955
57.9974
58.0105
58.0329
58.0642
58.1024
58.151
58.1843
58.2662
58.2652
58.3634
58.3627
58.4067
-1.37598
-1.27937
-1.35769
-1.12173
-1.0966
-0.934051
-0.803336
-0.662032
-0.516938
-0.369879
-0.222247
-0.0742091
57.9918
57.9948
58.0083
58.0309
58.0623
58.1006
58.1493
58.1833
58.2651
58.2663
58.3624
58.3637
58.4083
-1.38024
-1.28378
-1.36227
-1.12571
-1.10031
-0.937251
-0.806062
-0.664265
-0.518673
-0.371116
-0.222987
-0.0744558
57.9883
57.992
58.0056
58.0284
58.0598
58.0982
58.147
58.1819
58.2636
58.2672
58.3617
58.365
58.4101
-1.38617
-1.28985
-1.36828
-1.131
-1.1052
-0.941464
-0.809653
-0.667205
-0.520957
-0.372745
-0.223963
-0.0747805
57.9846
57.9889
58.0025
58.0252
58.0567
58.0952
58.1442
58.1801
58.2617
58.268
58.3613
58.3666
58.4122
-1.39363
-1.29727
-1.37561
-1.1375
-1.11119
-0.946627
-0.814056
-0.670812
-0.52376
-0.374743
-0.22516
-0.0751791
57.9808
57.9853
57.9989
58.0217
58.0531
58.0917
58.1408
58.178
58.2595
58.2687
58.3611
58.3687
58.4147
-1.40251
-1.30605
-1.38418
-1.14512
-1.1182
-0.952671
-0.819213
-0.675037
-0.527043
-0.377084
-0.226563
-0.075646
57.9769
57.9814
57.995
58.0177
58.0491
58.0877
58.137
58.1755
58.257
58.2694
58.3613
58.3713
58.4179
-1.41266
-1.31597
-1.39384
-1.15375
-1.12613
-0.959511
-0.825049
-0.679819
-0.530761
-0.379736
-0.228152
-0.0761749
57.9729
57.9774
57.9909
58.0134
58.0446
58.0833
58.1328
58.1726
58.2543
58.2701
58.3618
58.3744
58.4217
-1.42391
-1.32692
-1.40447
-1.16325
-1.13485
-0.967047
-0.831481
-0.685092
-0.53486
-0.38266
-0.229905
-0.0767584
57.9687
57.9731
57.9865
58.0088
58.0399
58.0786
58.1282
58.1696
58.2515
58.2709
58.3628
58.3783
58.4265
-1.43608
-1.33871
-1.41589
-1.17349
-1.14425
-0.975167
-0.838414
-0.690777
-0.539282
-0.385815
-0.231796
-0.077388
57.9645
57.9688
57.9819
58.004
58.0349
58.0736
58.1234
58.1663
58.2486
58.272
58.3643
58.3832
58.4323
-1.44898
-1.35116
-1.42793
-1.18431
-1.15417
-0.983751
-0.845746
-0.696791
-0.54396
-0.389154
-0.233798
-0.0780547
57.9603
57.9644
57.9773
57.9991
58.0297
58.0683
58.1184
58.163
58.2457
58.2733
58.3666
58.3891
58.4393
-1.46239
-1.36406
-1.44041
-1.19553
-1.16447
-0.992665
-0.853364
-0.703043
-0.548826
-0.392627
-0.235881
-0.0787484
57.9561
57.9601
57.9727
57.9941
58.0245
58.0631
58.1134
58.1596
58.2429
58.275
58.3697
58.3964
58.4479
-1.47612
-1.37722
-1.45312
-1.20698
-1.17498
-1.00177
-0.861151
-0.709436
-0.553802
-0.39618
-0.238012
-0.0794584
57.9521
57.9559
57.9681
57.9892
58.0193
58.0578
58.1083
58.1562
58.2403
58.2772
58.3738
58.4049
58.4582
-1.48992
-1.39042
-1.46588
-1.21849
-1.18554
-1.01093
-0.868984
-0.71587
-0.558813
-0.399759
-0.240158
-0.0801736
57.9482
57.9518
57.9637
57.9845
58.0142
58.0526
58.1033
58.1531
58.238
58.2798
58.379
58.4147
58.4701
-1.5036
-1.40345
-1.47846
-1.22985
-1.19598
-1.01999
-0.876738
-0.722242
-0.563776
-0.403305
-0.242286
-0.0808826
57.9446
57.948
57.9596
57.9799
58.0092
58.0476
58.0986
58.1501
58.236
58.2829
58.3853
58.4258
58.4838
-1.51692
-1.41611
-1.49066
-1.2409
-1.20613
-1.0288
-0.884286
-0.728447
-0.568612
-0.40676
-0.24436
-0.0815739
57.9413
57.9445
57.9557
57.9756
58.0046
58.0428
58.0941
58.1474
58.2344
58.2864
58.3927
58.4381
58.499
-1.52967
-1.42818
-1.5023
-1.25146
-1.21582
-1.03723
-0.891504
-0.734385
-0.57324
-0.410068
-0.246345
-0.0822358
57.9384
57.9413
57.9521
57.9716
58.0003
58.0385
58.09
58.1451
58.2332
58.2902
58.4009
58.4513
58.5154
-1.54165
-1.43948
-1.51318
-1.26134
-1.22489
-1.04512
-0.898272
-0.739954
-0.577583
-0.413173
-0.248209
-0.0828573
57.936
57.9386
57.949
57.9681
57.9964
58.0345
58.0863
58.1431
58.2324
58.2943
58.4096
58.465
58.5325
-1.55268
-1.44984
-1.52311
-1.2704
-1.2332
-1.05236
-0.904476
-0.74506
-0.581567
-0.416021
-0.249919
-0.0834277
57.9341
57.9364
57.9463
57.965
57.993
58.031
58.0831
58.1415
58.2319
58.2983
58.4184
58.4787
58.5497
-1.56257
-1.45907
-1.53194
-1.27846
-1.2406
-1.05881
-0.910008
-0.749617
-0.585122
-0.418564
-0.251446
-0.083937
57.933
57.9347
57.9441
57.9624
57.9901
58.0281
58.0804
58.1402
58.2316
58.3021
58.4268
58.4916
58.5661
-1.57118
-1.46708
-1.53953
-1.28543
-1.24697
-1.06437
-0.914777
-0.753544
-0.588187
-0.420757
-0.252763
-0.0843761
57.9324
57.9335
57.9423
57.9603
57.9878
58.0257
58.0782
58.1392
58.2316
58.3055
58.4343
58.5032
58.5809
-1.57839
-1.47367
-1.54573
-1.29116
-1.2522
-1.06893
-0.918696
-0.756774
-0.590708
-0.422561
-0.253846
-0.0847374
57.9336
57.9329
57.9411
57.9588
57.986
58.0239
58.0766
58.1385
58.2317
58.3082
58.4404
58.5128
58.5933
-1.58409
-1.47888
-1.55047
-1.29559
-1.25621
-1.07243
-0.921703
-0.759251
-0.592641
-0.423944
-0.254677
-0.0850141
57.9336
57.9324
57.9402
57.9577
57.9849
58.0227
58.0755
58.1381
58.2318
58.3101
58.4446
58.5198
58.6024
-1.58819
-1.48233
-1.55365
-1.29859
-1.25892
-1.07479
-0.923741
-0.760929
-0.593951
-0.42488
-0.255239
-0.0852012
57.9391
57.9331
57.9399
57.9573
57.9844
58.0222
58.0751
58.138
58.232
58.3112
58.4481
58.522
58.6078
-1.5906
-1.4847
-1.55521
-1.30023
-1.26032
-1.07597
-0.924786
-0.761783
-0.594616
-0.425356
-0.255524
-0.0852949
57.9993
57.9965
58.0082
58.0305
58.0616
58.0994
58.1476
58.1803
58.2621
58.2585
58.3625
58.3587
58.4017
-1.38265
-1.28558
-1.3618
-1.12489
-1.09779
-0.934692
-0.802851
-0.661011
-0.515698
-0.368712
-0.221399
-0.0738705
57.9927
57.9946
58.0076
58.0299
58.061
58.099
58.1472
58.1802
58.2618
58.2604
58.3583
58.3582
58.4024
-1.38342
-1.28652
-1.36344
-1.12613
-1.09904
-0.935802
-0.803768
-0.661769
-0.516287
-0.369131
-0.22165
-0.0739549
57.9903
57.9928
58.0061
58.0285
58.0597
58.0977
58.1461
58.1796
58.261
58.2614
58.3576
58.3584
58.4038
-1.38584
-1.28967
-1.36664
-1.1289
-1.10161
-0.938021
-0.805646
-0.663306
-0.51748
-0.369981
-0.222159
-0.0741244
57.9864
57.9903
58.004
58.0265
58.0578
58.0959
58.1443
58.1785
58.2597
58.2621
58.3565
58.3591
58.4052
-1.39024
-1.29425
-1.37138
-1.13301
-1.10544
-0.941316
-0.808449
-0.6656
-0.519261
-0.371249
-0.222918
-0.0743772
57.9828
57.9875
58.0013
58.0239
58.0552
58.0934
58.1419
58.1769
58.258
58.2627
58.3556
58.3601
58.4068
-1.39638
-1.30054
-1.3776
-1.13849
-1.11049
-0.945657
-0.812143
-0.668621
-0.521606
-0.37292
-0.223919
-0.0747101
57.9792
57.9842
57.9981
58.0207
58.052
58.0902
58.1389
58.1749
58.2558
58.2632
58.3548
58.3614
58.4087
-1.40409
-1.30824
-1.38518
-1.1452
-1.11667
-0.950977
-0.816674
-0.672328
-0.524484
-0.374971
-0.225147
-0.0751188
57.9754
57.9806
57.9945
58.0171
58.0483
58.0866
58.1353
58.1724
58.2532
58.2634
58.354
58.363
58.4108
-1.41326
-1.31734
-1.39406
-1.15308
-1.12391
-0.957208
-0.821983
-0.676672
-0.527857
-0.377375
-0.226587
-0.0755979
57.9714
57.9767
57.9906
58.013
58.0441
58.0824
58.1312
58.1695
58.2502
58.2635
58.3533
58.3648
58.4133
-1.42373
-1.32763
-1.40407
-1.162
-1.13209
-0.964262
-0.827993
-0.681593
-0.531679
-0.380099
-0.228219
-0.0761409
57.9674
57.9726
57.9863
58.0086
58.0395
58.0778
58.1267
58.1662
58.247
58.2634
58.3528
58.3671
58.4164
-1.43535
-1.33898
-1.41508
-1.17183
-1.1411
-0.972038
-0.834621
-0.68702
-0.535895
-0.383105
-0.23002
-0.0767404
57.9632
57.9683
57.9818
58.0039
58.0346
58.0728
58.1217
58.1626
58.2435
58.2633
58.3525
58.3699
58.4202
-1.44792
-1.35121
-1.42692
-1.18243
-1.15081
-0.980421
-0.84177
-0.692876
-0.540445
-0.38635
-0.231964
-0.0773877
57.9589
57.9639
57.9772
57.999
58.0294
58.0675
58.1165
58.1587
58.2398
58.2632
58.3525
58.3734
58.4247
-1.46125
-1.36412
-1.43941
-1.19362
-1.16107
-0.989286
-0.849333
-0.699074
-0.545264
-0.389786
-0.234024
-0.0780735
57.9547
57.9595
57.9725
57.994
58.024
58.0619
58.111
58.1546
58.236
58.2632
58.353
58.3778
58.4303
-1.4751
-1.3775
-1.45234
-1.20524
-1.17173
-0.998498
-0.857196
-0.705521
-0.550277
-0.393363
-0.236168
-0.0787875
57.9505
57.9551
57.9678
57.9889
58.0186
58.0563
58.1054
58.1504
58.2321
58.2634
58.3541
58.3831
58.4371
-1.48927
-1.39115
-1.46553
-1.2171
-1.1826
-1.00791
-0.865238
-0.712118
-0.555409
-0.397025
-0.238364
-0.0795188
57.9464
57.9508
57.9632
57.9839
58.0131
58.0507
58.0998
58.1462
58.2284
58.2638
58.356
58.3893
58.4453
-1.50353
-1.40484
-1.47875
-1.22902
-1.19354
-1.01738
-0.873332
-0.718761
-0.560578
-0.400715
-0.240576
-0.080256
57.9425
57.9467
57.9587
57.9789
58.0078
58.0451
58.0943
58.1421
58.2249
58.2645
58.3588
58.3966
58.455
-1.51765
-1.41835
-1.4918
-1.2408
-1.20435
-1.02676
-0.881348
-0.725343
-0.565702
-0.404374
-0.242771
-0.0809873
57.9388
57.9429
57.9545
57.9742
58.0027
58.0397
58.0889
58.1382
58.2216
58.2655
58.3625
58.405
58.4661
-1.5314
-1.43147
-1.50447
-1.25225
-1.21486
-1.03588
-0.889156
-0.731757
-0.570697
-0.407941
-0.244911
-0.0817007
57.9355
57.9393
57.9505
57.9698
57.9978
58.0346
58.0838
58.1345
58.2187
58.2669
58.3672
58.4144
58.4786
-1.54456
-1.44399
-1.51654
-1.26319
-1.22491
-1.04461
-0.896626
-0.737897
-0.57548
-0.411359
-0.246962
-0.0823843
57.9326
57.9361
57.9469
57.9657
57.9933
58.0298
58.0791
58.1312
58.2162
58.2686
58.3727
58.4247
58.4923
-1.55693
-1.4557
-1.52782
-1.27343
-1.23431
-1.05279
-0.903632
-0.743659
-0.579971
-0.414567
-0.248888
-0.0830265
57.9301
57.9334
57.9437
57.962
57.9892
58.0255
58.0749
58.1283
58.2141
58.2706
58.3787
58.4355
58.5067
-1.5683
-1.46644
-1.53813
-1.28282
-1.24293
-1.06028
-0.910057
-0.748944
-0.584091
-0.417513
-0.250656
-0.083616
57.9283
57.9311
57.9409
57.9588
57.9855
58.0217
58.0711
58.1258
58.2125
58.2727
58.385
58.4463
58.5211
-1.5785
-1.476
-1.54729
-1.29118
-1.2506
-1.06697
-0.915788
-0.753662
-0.58777
-0.420143
-0.252235
-0.0841427
57.927
57.9294
57.9386
57.9561
57.9825
58.0184
58.0679
58.1237
58.2112
58.2747
58.3911
58.4566
58.535
-1.58738
-1.48429
-1.55516
-1.2984
-1.25721
-1.07273
-0.920729
-0.757729
-0.590944
-0.422412
-0.253598
-0.0845971
57.9264
57.9281
57.9368
57.9539
57.98
58.0158
58.0654
58.1221
58.2103
58.2766
58.3965
58.4658
58.5476
-1.5948
-1.49112
-1.56159
-1.30434
-1.26262
-1.07746
-0.924791
-0.761075
-0.593554
-0.424279
-0.254719
-0.084971
57.9276
57.9276
57.9356
57.9523
57.9781
58.0138
58.0634
58.1209
58.2096
58.2781
58.4011
58.4735
58.5581
-1.60067
-1.49651
-1.56651
-1.30893
-1.26679
-1.08109
-0.927908
-0.763641
-0.595556
-0.425711
-0.255579
-0.0852575
57.9276
57.927
57.9347
57.9512
57.9769
58.0125
58.0621
58.1201
58.2093
58.2792
58.404
58.4791
58.5657
-1.60489
-1.50008
-1.5698
-1.31204
-1.2696
-1.08354
-0.93002
-0.76538
-0.596912
-0.426681
-0.256161
-0.0854514
57.9331
57.9277
57.9343
57.9508
57.9764
58.0119
58.0616
58.1197
58.2092
58.2799
58.4064
58.4824
58.57
-1.60737
-1.50253
-1.57143
-1.31373
-1.27105
-1.08476
-0.931103
-0.766265
-0.597601
-0.427173
-0.256456
-0.0855486
57.9914
57.9897
58.0018
58.024
58.0549
58.0925
58.1404
58.1733
58.2545
58.2523
58.3544
58.3526
58.3962
-1.39847
-1.30059
-1.37476
-1.13533
-1.10497
-0.940307
-0.806032
-0.662669
-0.516301
-0.368704
-0.221161
-0.0737042
57.9849
57.9879
58.0011
58.0234
58.0543
58.092
58.14
58.1731
58.2541
58.2543
58.3498
58.3519
58.3969
-1.3991
-1.30161
-1.37648
-1.13664
-1.10627
-0.941465
-0.806988
-0.663456
-0.516912
-0.369139
-0.221421
-0.0737912
57.9824
57.9862
57.9996
58.022
58.0529
58.0907
58.1387
58.1723
58.2531
58.255
58.349
58.3519
58.3982
-1.40177
-1.30493
-1.37985
-1.13954
-1.10896
-0.943779
-0.808943
-0.665053
-0.51815
-0.370019
-0.221948
-0.0739666
57.9785
57.9836
57.9975
58.0199
58.0509
58.0887
58.1368
58.171
58.2516
58.2554
58.3475
58.3524
58.3995
-1.40643
-1.30977
-1.38483
-1.14386
-1.11296
-0.947219
-0.811862
-0.667438
-0.519999
-0.371335
-0.222735
-0.0742284
57.9749
57.9807
57.9947
58.0172
58.0482
58.086
58.1341
58.1692
58.2495
58.2556
58.3461
58.353
58.4008
-1.41288
-1.31641
-1.39137
-1.1496
-1.11825
-0.951752
-0.81571
-0.67058
-0.522435
-0.373069
-0.223773
-0.0745735
57.9712
57.9774
57.9915
58.014
58.0449
58.0827
58.1308
58.1668
58.2468
58.2554
58.3445
58.3537
58.402
-1.421
-1.32452
-1.39935
-1.15665
-1.12471
-0.957309
-0.820434
-0.674439
-0.525427
-0.375199
-0.225048
-0.0749975
57.9674
57.9737
57.9879
58.0102
58.041
58.0788
58.1269
58.1638
58.2437
58.255
58.3428
58.3544
58.4034
-1.43065
-1.33412
-1.40869
-1.16492
-1.13229
-0.963823
-0.825971
-0.678962
-0.528935
-0.377697
-0.226543
-0.0754949
57.9634
57.9697
57.9838
58.0061
58.0367
58.0744
58.1224
58.1604
58.24
58.2541
58.341
58.3552
58.4049
-1.44168
-1.34497
-1.41924
-1.17429
-1.14087
-0.971202
-0.832245
-0.684091
-0.532913
-0.38053
-0.228239
-0.0760592
57.9593
57.9656
57.9795
58.0015
58.0318
58.0694
58.1174
58.1564
58.2359
58.2528
58.339
58.3561
58.4066
-1.4539
-1.35694
-1.43083
-1.18462
-1.15032
-0.97934
-0.839169
-0.689752
-0.537305
-0.383658
-0.230113
-0.0766826
57.9551
57.9612
57.9749
57.9966
58.0267
58.064
58.1119
58.152
58.2313
58.2513
58.3368
58.3572
58.4085
-1.46713
-1.36983
-1.44331
-1.19576
-1.16051
-0.988121
-0.846643
-0.695865
-0.54205
-0.387039
-0.232138
-0.0773565
57.9508
57.9568
57.9702
57.9916
58.0212
58.0583
58.1061
58.1471
58.2264
58.2494
58.3345
58.3587
58.4108
-1.48113
-1.38344
-1.45647
-1.20753
-1.17128
-0.997413
-0.854557
-0.702342
-0.547079
-0.390623
-0.234285
-0.0780711
57.9465
57.9523
57.9654
57.9863
58.0156
58.0523
58.0999
58.1419
58.2212
58.2472
58.3322
58.3603
58.4135
-1.4957
-1.39756
-1.47011
-1.21975
-1.18247
-1.00708
-0.862792
-0.709085
-0.552317
-0.394357
-0.236522
-0.0788159
57.9422
57.9478
57.9606
57.9811
58.0098
58.0462
58.0935
58.1365
58.2158
58.2449
58.3301
58.3624
58.417
-1.5106
-1.41195
-1.48402
-1.23224
-1.19391
-1.01696
-0.871221
-0.715991
-0.557683
-0.398183
-0.238815
-0.0795796
57.9381
57.9435
57.9558
57.9758
58.004
58.04
58.0871
58.131
58.2103
58.2425
58.3283
58.3648
58.4212
-1.52559
-1.42638
-1.49797
-1.24478
-1.20541
-1.02691
-0.879712
-0.72295
-0.563093
-0.402042
-0.241129
-0.0803501
57.9341
57.9393
57.9512
57.9707
57.9983
58.0339
58.0806
58.1255
58.2049
58.2401
58.3271
58.3678
58.4263
-1.54043
-1.44063
-1.51173
-1.25719
-1.21679
-1.03676
-0.888128
-0.729853
-0.568461
-0.405872
-0.243425
-0.0811152
57.9304
57.9353
57.9468
57.9658
57.9928
58.0279
58.0743
58.1201
58.1996
58.2378
58.3265
58.3716
58.4326
-1.55487
-1.45446
-1.5251
-1.26925
-1.22786
-1.04636
-0.896331
-0.736585
-0.573699
-0.40961
-0.245667
-0.0818623
57.9271
57.9317
57.9427
57.9611
57.9876
58.0222
58.0683
58.1149
58.1947
58.2359
58.3267
58.3763
58.4399
-1.56869
-1.46765
-1.53784
-1.28078
-1.23844
-1.05554
-0.904184
-0.743033
-0.578718
-0.413194
-0.247817
-0.0825787
57.9241
57.9284
57.939
57.9569
57.9828
58.0169
58.0627
58.1101
58.1902
58.2342
58.3277
58.3816
58.4482
-1.58168
-1.47999
-1.54974
-1.29157
-1.24835
-1.06415
-0.911555
-0.749088
-0.583433
-0.416561
-0.249837
-0.0832523
57.9216
57.9256
57.9357
57.953
57.9783
58.012
58.0576
58.1057
58.1861
58.2329
58.3292
58.3874
58.4571
-1.59361
-1.4913
-1.56062
-1.30146
-1.25744
-1.07205
-0.918316
-0.754646
-0.587763
-0.419654
-0.251693
-0.0838712
57.9197
57.9233
57.9328
57.9496
57.9744
58.0077
58.0531
58.1019
58.1826
58.2318
58.3312
58.3933
58.4663
-1.60431
-1.50137
-1.57028
-1.31028
-1.26552
-1.07909
-0.924351
-0.75961
-0.591631
-0.422418
-0.253352
-0.0844244
57.9184
57.9215
57.9305
57.9467
57.9711
58.0041
58.0492
58.0986
58.1797
58.231
58.3333
58.399
58.475
-1.61362
-1.51009
-1.57858
-1.31789
-1.2725
-1.08516
-0.929556
-0.763892
-0.594968
-0.424803
-0.254784
-0.084902
57.9178
57.9203
57.9286
57.9444
57.9684
58.0011
58.046
58.0959
58.1773
58.2305
58.3352
58.4041
58.4829
-1.62139
-1.51727
-1.58536
-1.32414
-1.27821
-1.09015
-0.933836
-0.767415
-0.597715
-0.426766
-0.255963
-0.0852952
57.9189
57.9197
57.9273
57.9427
57.9664
57.9988
58.0436
58.0939
58.1755
58.2301
58.3368
58.4082
58.4894
-1.62753
-1.52293
-1.59055
-1.32898
-1.2826
-1.09398
-0.93712
-0.770117
-0.599823
-0.428273
-0.256867
-0.0855967
57.9189
57.9191
57.9264
57.9416
57.965
57.9973
58.0419
58.0926
58.1743
58.2298
58.3375
58.4111
58.4939
-1.63194
-1.52668
-1.59403
-1.33225
-1.28557
-1.09656
-0.939347
-0.771949
-0.601251
-0.429294
-0.25748
-0.0858008
57.9244
57.9198
57.926
57.9411
57.9645
57.9966
58.0412
58.092
58.1738
58.23
58.3381
58.4127
58.4962
-1.63453
-1.52922
-1.59575
-1.33402
-1.2871
-1.09785
-0.940487
-0.772881
-0.601976
-0.429812
-0.257791
-0.0859035
57.9824
57.9813
57.9934
58.0154
58.046
58.0833
58.1307
58.1639
58.2443
58.244
58.3435
58.3441
58.3882
-1.42009
-1.32078
-1.39196
-1.14917
-1.11433
-0.947552
-0.810054
-0.664664
-0.516917
-0.368548
-0.220749
-0.0734467
57.9759
57.9796
57.9926
58.0148
58.0454
58.0827
58.1302
58.1636
58.2438
58.2456
58.3389
58.3433
58.389
-1.42077
-1.3219
-1.39379
-1.15057
-1.11572
-0.948774
-0.81106
-0.665489
-0.517557
-0.369002
-0.22102
-0.0735371
57.9733
57.9778
57.9912
58.0133
58.0439
58.0813
58.1289
58.1626
58.2426
58.246
58.338
58.3431
58.3901
-1.42369
-1.32546
-1.39737
-1.15365
-1.11856
-0.951218
-0.813119
-0.667167
-0.518855
-0.369924
-0.221571
-0.0737202
57.9695
57.9752
57.989
58.0112
58.0418
58.0792
58.1267
58.1611
58.2407
58.2461
58.336
58.3432
58.3911
-1.42868
-1.33066
-1.40268
-1.15825
-1.1228
-0.954851
-0.816193
-0.669673
-0.520794
-0.371302
-0.222395
-0.073994
57.9659
57.9722
57.9862
58.0084
58.039
58.0763
58.1238
58.1589
58.2381
58.2457
58.3339
58.3432
58.3918
-1.43559
-1.33776
-1.40966
-1.16436
-1.1284
-0.959641
-0.820248
-0.672976
-0.52335
-0.373119
-0.223482
-0.0743552
57.9622
57.9687
57.9829
58.0051
58.0355
58.0728
58.1202
58.156
58.2349
58.2448
58.3314
58.343
58.3922
-1.44427
-1.34644
-1.41819
-1.17185
-1.13525
-0.965518
-0.825229
-0.677036
-0.526493
-0.375354
-0.224818
-0.0747994
57.9583
57.965
57.9792
58.0012
58.0314
58.0685
58.1158
58.1524
58.231
58.2433
58.3285
58.3426
58.3925
-1.45459
-1.35671
-1.42816
-1.18065
-1.1433
-0.972412
-0.831072
-0.681801
-0.530182
-0.377978
-0.226388
-0.0753212
57.9543
57.961
57.9751
57.9969
58.0268
58.0637
58.1108
58.1482
58.2264
58.2411
58.325
58.3419
58.3924
-1.46638
-1.36832
-1.43943
-1.19063
-1.1524
-0.980226
-0.8377
-0.687207
-0.534369
-0.380956
-0.22817
-0.0759138
57.9501
57.9567
57.9706
57.9921
58.0217
58.0583
58.1052
58.1433
58.2211
58.2382
58.3209
58.3409
58.392
-1.47945
-1.38113
-1.45182
-1.20164
-1.16244
-0.988854
-0.845022
-0.693182
-0.538998
-0.38425
-0.230141
-0.0765693
57.9458
57.9523
57.9659
57.9871
58.0162
58.0525
58.099
58.1378
58.2152
58.2346
58.316
58.3394
58.3912
-1.49357
-1.39493
-1.46517
-1.21351
-1.17328
-0.998172
-0.852934
-0.699642
-0.544004
-0.387813
-0.232273
-0.0772788
57.9415
57.9478
57.9611
57.9818
58.0104
58.0462
58.0923
58.1317
58.2086
58.2302
58.3104
58.3375
58.3899
-1.50854
-1.4095
-1.47925
-1.22606
-1.18474
-1.00804
-0.861322
-0.706493
-0.549316
-0.391594
-0.234538
-0.0780321
57.9371
57.9432
57.9561
57.9763
58.0044
58.0396
58.0851
58.125
58.2015
58.225
58.304
58.3349
58.3882
-1.52411
-1.42461
-1.49385
-1.23911
-1.19667
-1.01832
-0.87006
-0.713636
-0.554856
-0.395539
-0.2369
-0.0788183
57.9328
57.9386
57.9511
57.9708
57.9982
58.0328
58.0777
58.118
58.1939
58.2191
58.2971
58.3317
58.3861
-1.54002
-1.44002
-1.50874
-1.25244
-1.20886
-1.02884
-0.879014
-0.72096
-0.560539
-0.399587
-0.239325
-0.0796255
57.9286
57.9342
57.9462
57.9653
57.992
58.0259
58.0701
58.1106
58.186
58.2126
58.2899
58.3279
58.3837
-1.55603
-1.45547
-1.52368
-1.26584
-1.22114
-1.03944
-0.888044
-0.728349
-0.566276
-0.403675
-0.241774
-0.080441
57.9245
57.9299
57.9415
57.9599
57.9859
58.0191
58.0625
58.1032
58.1779
58.2058
58.2827
58.324
58.3814
-1.57187
-1.47073
-1.53843
-1.2791
-1.23329
-1.04994
-0.897003
-0.735686
-0.571975
-0.407737
-0.244208
-0.0812518
57.9208
57.9259
57.9369
57.9547
57.9799
58.0124
58.055
58.0958
58.1699
58.1988
58.2757
58.3202
58.3793
-1.58728
-1.48553
-1.55275
-1.292
-1.24512
-1.06018
-0.905743
-0.742849
-0.577541
-0.411706
-0.246587
-0.0820444
57.9173
57.9221
57.9327
57.9498
57.9743
58.0059
58.0478
58.0886
58.1621
58.1919
58.2692
58.3168
58.3778
-1.60202
-1.49964
-1.5664
-1.30433
-1.25644
-1.06999
-0.914118
-0.749718
-0.582881
-0.415515
-0.248871
-0.0828054
57.9143
57.9188
57.9288
57.9453
57.969
57.9999
58.0409
58.0817
58.1546
58.1853
58.2633
58.3138
58.3769
-1.61586
-1.51284
-1.57915
-1.31587
-1.26704
-1.07919
-0.921985
-0.756173
-0.587902
-0.419097
-0.25102
-0.0835216
57.9118
57.9159
57.9254
57.9412
57.9642
57.9943
58.0347
58.0754
58.1478
58.1792
58.258
58.3112
58.3764
-1.62857
-1.52493
-1.5908
-1.32645
-1.27676
-1.08763
-0.929207
-0.762103
-0.592516
-0.422391
-0.252995
-0.0841803
57.9098
57.9135
57.9224
57.9376
57.9599
57.9894
58.029
58.0697
58.1416
58.1736
58.2534
58.3088
58.3761
-1.63996
-1.53568
-1.60115
-1.33588
-1.28542
-1.09516
-0.935656
-0.767402
-0.596641
-0.425336
-0.254763
-0.0847697
57.9085
57.9117
57.9199
57.9346
57.9562
57.9851
58.0242
58.0648
58.1362
58.1688
58.2493
58.3066
58.3757
-1.64986
-1.545
-1.61005
-1.34402
-1.29289
-1.10166
-0.941221
-0.771975
-0.600203
-0.42788
-0.256289
-0.0852788
57.9078
57.9104
57.918
57.9321
57.9533
57.9816
58.0202
58.0608
58.1317
58.1647
58.2457
58.3043
58.375
-1.65813
-1.55265
-1.61731
-1.35071
-1.29901
-1.107
-0.945799
-0.77574
-0.603136
-0.429975
-0.257547
-0.0856983
57.9089
57.9098
57.9166
57.9303
57.951
57.979
58.0172
58.0577
58.1281
58.1615
58.2427
58.3019
58.3738
-1.66465
-1.55868
-1.62287
-1.35588
-1.30371
-1.11109
-0.949313
-0.77863
-0.605387
-0.431583
-0.258512
-0.0860203
57.9089
57.9092
57.9156
57.929
57.9495
57.9772
58.0151
58.0555
58.1256
58.1593
58.24
58.2997
58.3721
-1.66932
-1.56268
-1.62659
-1.35938
-1.30689
-1.11386
-0.951694
-0.780588
-0.606913
-0.432673
-0.259167
-0.0862384
57.9143
57.9099
57.9153
57.9286
57.9489
57.9764
58.0142
58.0546
58.1243
58.1586
58.2388
58.2958
58.3703
-1.67205
-1.56534
-1.62843
-1.36126
-1.30853
-1.11524
-0.952913
-0.781584
-0.607689
-0.433228
-0.2595
-0.0863486
57.972
57.9711
57.9832
58.0049
58.035
58.0718
58.1187
58.152
58.2315
58.2333
58.3302
58.3333
58.3779
-1.44771
-1.34619
-1.41339
-1.16636
-1.12578
-0.956275
-0.814772
-0.666852
-0.517422
-0.368148
-0.220103
-0.0730779
57.9654
57.9694
57.9824
58.0042
58.0343
58.0711
58.1181
58.1517
58.2309
58.2345
58.3258
58.3325
58.3786
-1.4485
-1.34746
-1.41535
-1.16787
-1.12726
-0.957577
-0.815842
-0.667726
-0.518097
-0.368626
-0.220387
-0.0731723
57.9629
57.9676
57.9809
58.0027
58.0328
58.0696
58.1166
58.1505
58.2294
58.2345
58.3245
58.3319
58.3795
-1.45171
-1.35133
-1.41923
-1.17119
-1.1303
-0.960182
-0.818029
-0.669504
-0.519469
-0.369599
-0.220968
-0.0733649
57.959
57.9649
57.9786
58.0005
58.0305
58.0673
58.1142
58.1486
58.2272
58.2341
58.322
58.3315
58.38
-1.45713
-1.35697
-1.42496
-1.17613
-1.13484
-0.964058
-0.821297
-0.67216
-0.52152
-0.371055
-0.221837
-0.0736534
57.9554
57.9618
57.9758
57.9976
58.0276
58.0642
58.111
58.1459
58.2241
58.233
58.319
58.3307
58.38
-1.46463
-1.36467
-1.4325
-1.1827
-1.14083
-0.969171
-0.82561
-0.675665
-0.524227
-0.372976
-0.222985
-0.0740346
57.9516
57.9584
57.9724
57.9941
58.0239
58.0604
58.1069
58.1425
58.2201
58.2312
58.3153
58.3294
58.3794
-1.47405
-1.37409
-1.44171
-1.19077
-1.14818
-0.97545
-0.830913
-0.679976
-0.527558
-0.375341
-0.224398
-0.074504
57.9477
57.9546
57.9686
57.9901
58.0196
58.0558
58.102
58.1382
58.2153
58.2284
58.3109
58.3276
58.3781
-1.48524
-1.38522
-1.4525
-1.20025
-1.1568
-0.982821
-0.837142
-0.685042
-0.531472
-0.378121
-0.22606
-0.0750561
57.9436
57.9505
57.9643
57.9856
58.0147
58.0505
58.0964
58.133
58.2095
58.2246
58.3053
58.325
58.376
-1.49802
-1.39781
-1.46469
-1.211
-1.16658
-0.991187
-0.844215
-0.690798
-0.535921
-0.381282
-0.227949
-0.075684
57.9394
57.9461
57.9598
57.9806
58.0092
58.0447
58.09
58.127
58.2028
58.2197
58.2984
58.3213
58.3727
-1.51218
-1.41171
-1.47811
-1.22286
-1.17737
-1.00043
-0.852039
-0.697168
-0.540847
-0.384782
-0.230042
-0.0763797
57.9351
57.9416
57.9549
57.9753
58.0034
58.0382
58.0829