/*--------------------------------*- C++ -*----------------------------------*\
| =========                 |                                                 |
| \\      /  F ield         | OpenFOAM: The Open Source CFD Toolbox           |
|  \\    /   O peration     | Version:  2306                                  |
|   \\  /    A nd           | Website:  www.openfoam.com                      |
|    \\/     M anipulation  |                                                 |
\*---------------------------------------------------------------------------*/
FoamFile
{
    version     2.0;
    format      ascii;
    arch        "LSB;label=32;scalar=64";
    class       volScalarField;
    location    "3";
    object      p;
}
// * * * * * * * * * * * * * * * * * * * * * * * * * * * * * * * * * * * * * //

dimensions      [0 2 -2 0 0 0 0];

internalField   nonuniform List<scalar> 
288632
(
55.3625
55.3539
55.3639
55.3853
55.4155
55.4525
55.4994
55.5297
55.617
55.5994
55.7188
55.7029
55.7478
-1.10713
-1.01534
-1.12157
-0.894331
-0.894858
-0.758009
-0.651305
-0.536889
-0.419308
-0.300063
-0.180378
-0.0602723
55.3556
55.3522
55.3632
55.3847
55.4148
55.452
55.4989
55.5295
55.6167
55.5999
55.7182
55.7022
55.748
-1.10777
-1.01613
-1.1231
-0.895468
-0.896019
-0.759037
-0.652159
-0.537592
-0.419855
-0.300452
-0.180612
-0.0603509
55.3531
55.3503
55.3616
55.3832
55.4134
55.4506
55.4976
55.5287
55.6157
55.6004
55.7176
55.7022
55.7488
-1.11005
-1.01904
-1.12607
-0.89803
-0.898403
-0.761097
-0.653901
-0.539018
-0.420961
-0.30124
-0.181083
-0.060508
55.3493
55.3476
55.3593
55.381
55.4113
55.4486
55.4956
55.5275
55.6142
55.6009
55.7163
55.7027
55.7497
-1.11414
-1.02324
-1.13045
-0.901836
-0.901947
-0.764155
-0.656499
-0.541143
-0.422611
-0.302414
-0.181786
-0.0607418
55.3456
55.3445
55.3564
55.3782
55.4085
55.4458
55.493
55.5257
55.6121
55.6014
55.7148
55.7033
55.7508
-1.11984
-1.02906
-1.1362
-0.906911
-0.90662
-0.768181
-0.659921
-0.543941
-0.424781
-0.30396
-0.182711
-0.0610494
55.3417
55.3409
55.353
55.3748
55.4051
55.4424
55.4897
55.5235
55.6095
55.6021
55.7129
55.7041
55.752
-1.12703
-1.03617
-1.14322
-0.913131
-0.912337
-0.773114
-0.664117
-0.547372
-0.427443
-0.305855
-0.183845
-0.0614266
55.3377
55.3371
55.3491
55.3709
55.401
55.4384
55.4858
55.5208
55.6064
55.6026
55.7113
55.7053
55.7535
-1.13559
-1.0446
-1.15143
-0.920439
-0.919031
-0.77889
-0.66903
-0.55139
-0.43056
-0.308075
-0.185174
-0.0618683
55.3334
55.3329
55.3449
55.3665
55.3965
55.4339
55.4814
55.5177
55.603
55.6024
55.7104
55.7068
55.7554
-1.14539
-1.05414
-1.16069
-0.928712
-0.926599
-0.785426
-0.674589
-0.555937
-0.434089
-0.310588
-0.186678
-0.0623685
55.329
55.3284
55.3403
55.3617
55.3916
55.4289
55.4766
55.5143
55.5993
55.6023
55.7097
55.7088
55.758
-1.15627
-1.06468
-1.17088
-0.937835
-0.934933
-0.792629
-0.680715
-0.560949
-0.437979
-0.313359
-0.188337
-0.06292
55.3245
55.3238
55.3354
55.3566
55.3863
55.4235
55.4714
55.5105
55.5954
55.6023
55.7095
55.7114
55.7613
-1.16806
-1.07604
-1.18185
-0.947666
-0.943908
-0.800391
-0.687319
-0.566353
-0.442174
-0.316348
-0.190126
-0.0635149
55.3198
55.319
55.3304
55.3513
55.3807
55.4179
55.4658
55.5066
55.5914
55.6024
55.7099
55.7149
55.7657
-1.18056
-1.08805
-1.19341
-0.958057
-0.95339
-0.808597
-0.694302
-0.572068
-0.446612
-0.319509
-0.192019
-0.0641444
55.3152
55.3142
55.3254
55.3459
55.375
55.412
55.4601
55.5025
55.5873
55.6029
55.711
55.7194
55.7713
-1.19357
-1.10051
-1.20541
-0.968847
-0.963235
-0.817122
-0.701558
-0.578009
-0.451225
-0.322797
-0.193988
-0.0647992
55.3106
55.3094
55.3202
55.3404
55.3692
55.4061
55.4543
55.4984
55.5834
55.6038
55.713
55.7252
55.7785
-1.20691
-1.11323
-1.21764
-0.979866
-0.973289
-0.825833
-0.708975
-0.584083
-0.455943
-0.326159
-0.196001
-0.0654691
55.3061
55.3047
55.3152
55.335
55.3634
55.4001
55.4485
55.4944
55.5797
55.6053
55.7161
55.7324
55.7874
-1.22034
-1.126
-1.22992
-0.990941
-0.983394
-0.834592
-0.716437
-0.590196
-0.460692
-0.329545
-0.198029
-0.0661436
55.3018
55.3002
55.3103
55.3297
55.3577
55.3943
55.4429
55.4906
55.5762
55.6073
55.7204
55.7412
55.798
-1.23367
-1.13863
-1.24205
-1.00189
-0.993388
-0.843261
-0.723824
-0.596249
-0.465396
-0.332898
-0.200038
-0.066812
55.2978
55.296
55.3057
55.3246
55.3522
55.3887
55.4375
55.487
55.5732
55.6099
55.7258
55.7516
55.8105
-1.24666
-1.15091
-1.25383
-1.01255
-1.00311
-0.851698
-0.731016
-0.602144
-0.469978
-0.336166
-0.201995
-0.0674635
55.2941
55.2921
55.3014
55.3199
55.347
55.3834
55.4324
55.4838
55.5707
55.6131
55.7325
55.7633
55.8247
-1.25913
-1.16264
-1.26507
-1.02273
-1.0124
-0.859765
-0.737895
-0.607785
-0.474363
-0.339293
-0.203869
-0.0680871
55.2908
55.2885
55.2974
55.3154
55.3423
55.3785
55.4277
55.481
55.5686
55.6166
55.7402
55.7759
55.8402
-1.27085
-1.17363
-1.27558
-1.03228
-1.0211
-0.867328
-0.744345
-0.613075
-0.478478
-0.342228
-0.205628
-0.0686725
55.2881
55.2855
55.2939
55.3115
55.3379
55.374
55.4236
55.4785
55.567
55.6205
55.7486
55.7891
55.8566
-1.28165
-1.18373
-1.2852
-1.04103
-1.02907
-0.874261
-0.750259
-0.617927
-0.482251
-0.34492
-0.207241
-0.0692096
55.2859
55.2829
55.2909
55.308
55.3341
55.3701
55.4199
55.4765
55.5659
55.6245
55.7572
55.8023
55.8731
-1.29136
-1.19273
-1.29375
-1.04883
-1.03617
-0.880443
-0.755534
-0.622256
-0.485619
-0.347323
-0.208682
-0.0696891
55.2845
55.2809
55.2884
55.3051
55.3309
55.3668
55.4168
55.4749
55.5651
55.6283
55.7655
55.815
55.8891
-1.29982
-1.20056
-1.3011
-1.05558
-1.04229
-0.885773
-0.760082
-0.625988
-0.488523
-0.349395
-0.209924
-0.0701025
55.2838
55.2795
55.2864
55.3028
55.3283
55.3641
55.4144
55.4737
55.5647
55.6317
55.7731
55.8265
55.9035
-1.30691
-1.20701
-1.30712
-1.06113
-1.04731
-0.890152
-0.76382
-0.629057
-0.490911
-0.351099
-0.210945
-0.0704425
55.2848
55.2788
55.285
55.301
55.3263
55.3621
55.4125
55.4729
55.5645
55.6345
55.7794
55.836
55.9157
-1.31254
-1.21213
-1.31172
-1.06543
-1.05116
-0.893511
-0.766689
-0.631411
-0.492742
-0.352406
-0.211729
-0.0707029
55.2846
55.2781
55.284
55.2999
55.325
55.3608
55.4113
55.4723
55.5644
55.6365
55.7838
55.8431
55.9248
-1.3166
-1.21552
-1.3148
-1.06835
-1.05377
-0.895778
-0.768633
-0.633006
-0.493983
-0.353291
-0.212259
-0.070879
55.2899
55.2787
55.2837
55.2994
55.3245
55.3602
55.4108
55.4722
55.5645
55.6378
55.7867
55.8465
55.9306
-1.31902
-1.2179
-1.31632
-1.06994
-1.05512
-0.896918
-0.76963
-0.633819
-0.494614
-0.353742
-0.212528
-0.0709673
55.3546
55.351
55.3619
55.3833
55.4135
55.4505
55.4973
55.5277
55.6148
55.5978
55.716
55.7005
55.7465
-1.11067
-1.01902
-1.12535
-0.897336
-0.896959
-0.759788
-0.652356
-0.53749
-0.419586
-0.30014
-0.180364
-0.0602464
55.3478
55.3491
55.3613
55.3827
55.4128
55.4499
55.4968
55.5275
55.6144
55.5993
55.712
55.6999
55.747
-1.11127
-1.01984
-1.12692
-0.898498
-0.898143
-0.760835
-0.653223
-0.538204
-0.420141
-0.300535
-0.1806
-0.060326
55.3455
55.3471
55.3597
55.3812
55.4114
55.4485
55.4955
55.5267
55.6133
55.6001
55.7106
55.6998
55.7479
-1.11359
-1.0228
-1.12994
-0.901105
-0.900564
-0.762926
-0.654991
-0.539649
-0.421262
-0.301332
-0.181078
-0.060485
55.3417
55.3445
55.3573
55.379
55.4092
55.4464
55.4935
55.5254
55.6117
55.6006
55.7089
55.7002
55.7489
-1.11774
-1.02708
-1.1344
-0.904976
-0.904163
-0.766031
-0.657626
-0.541804
-0.422932
-0.302522
-0.181789
-0.0607217
55.3379
55.3415
55.3543
55.3761
55.4064
55.4436
55.4907
55.5235
55.6094
55.601
55.7072
55.7007
55.75
-1.12352
-1.03301
-1.14026
-0.910137
-0.908911
-0.770118
-0.661097
-0.54464
-0.425132
-0.304087
-0.182726
-0.0610331
55.334
55.338
55.3509
55.3727
55.4029
55.4402
55.4874
55.5212
55.6067
55.6012
55.7055
55.7014
55.7511
-1.13081
-1.04025
-1.1474
-0.916462
-0.914719
-0.775126
-0.665354
-0.548119
-0.427829
-0.306008
-0.183875
-0.0614151
55.3299
55.3341
55.347
55.3687
55.3988
55.4361
55.4834
55.5184
55.6034
55.6011
55.7039
55.7023
55.7525
-1.1395
-1.04884
-1.15576
-0.923895
-0.921521
-0.780992
-0.670338
-0.552193
-0.430989
-0.308257
-0.185221
-0.0618625
55.3257
55.3299
55.3427
55.3643
55.3942
55.4314
55.4788
55.5151
55.5998
55.6007
55.7026
55.7035
55.7543
-1.14944
-1.05855
-1.16518
-0.93231
-0.929212
-0.787631
-0.675981
-0.556805
-0.434567
-0.310804
-0.186745
-0.0623692
55.3212
55.3254
55.3381
55.3595
55.3892
55.4263
55.4738
55.5114
55.5958
55.6001
55.7015
55.7052
55.7566
-1.16048
-1.06929
-1.17556
-0.94159
-0.937683
-0.794948
-0.6822
-0.561891
-0.438512
-0.313613
-0.188427
-0.0629281
55.3167
55.3207
55.3332
55.3543
55.3838
55.4208
55.4684
55.5073
55.5915
55.5996
55.7008
55.7074
55.7597
-1.17243
-1.08086
-1.18672
-0.951593
-0.946808
-0.802835
-0.688905
-0.567375
-0.442767
-0.316644
-0.19024
-0.0635312
55.312
55.3159
55.3282
55.349
55.3782
55.415
55.4626
55.5031
55.5871
55.5992
55.7005
55.7104
55.7637
-1.18511
-1.09308
-1.1985
-0.962168
-0.956452
-0.811176
-0.695998
-0.573177
-0.44727
-0.319851
-0.19216
-0.0641696
55.3074
55.3111
55.323
55.3435
55.3723
55.409
55.4567
55.4986
55.5826
55.599
55.7008
55.7144
55.7689
-1.19832
-1.10578
-1.21072
-0.97315
-0.966466
-0.819841
-0.70337
-0.579209
-0.451952
-0.323186
-0.194157
-0.0648337
55.3028
55.3063
55.3179
55.3379
55.3664
55.4029
55.4506
55.4941
55.5781
55.5992
55.7019
55.7197
55.7756
-1.21184
-1.11873
-1.22318
-0.984367
-0.976695
-0.828699
-0.710907
-0.585379
-0.456743
-0.326599
-0.196201
-0.0655134
55.2983
55.3016
55.3128
55.3324
55.3605
55.3968
55.4445
55.4897
55.5738
55.5998
55.704
55.7263
55.7839
-1.22547
-1.13175
-1.23569
-0.995642
-0.986978
-0.837608
-0.718492
-0.591589
-0.461566
-0.330036
-0.198259
-0.0661981
55.294
55.2971
55.3079
55.3271
55.3547
55.3907
55.4386
55.4854
55.5698
55.6008
55.7073
55.7345
55.7939
-1.23899
-1.14462
-1.24805
-1.0068
-0.997151
-0.846427
-0.726003
-0.597741
-0.466344
-0.333442
-0.200299
-0.0668767
55.2899
55.2928
55.3032
55.3219
55.3491
55.3849
55.4328
55.4813
55.5662
55.6024
55.7117
55.7439
55.8057
-1.25217
-1.15712
-1.26005
-1.01765
-1.00705
-0.855012
-0.733317
-0.603734
-0.471001
-0.336761
-0.202287
-0.0675383
55.2862
55.2888
55.2989
55.3171
55.3438
55.3794
55.4275
55.4776
55.563
55.6045
55.7172
55.7546
55.8192
-1.26481
-1.16907
-1.27151
-1.02802
-1.0165
-0.863221
-0.740315
-0.609469
-0.475458
-0.339939
-0.204191
-0.0681719
55.2829
55.2853
55.2949
55.3126
55.3389
55.3743
55.4225
55.4743
55.5603
55.607
55.7237
55.7663
55.8341
-1.2767
-1.18027
-1.28222
-1.03774
-1.02536
-0.870919
-0.746878
-0.61485
-0.479641
-0.342922
-0.205978
-0.0687667
55.2802
55.2822
55.2913
55.3086
55.3345
55.3697
55.418
55.4714
55.5581
55.6098
55.7309
55.7786
55.8498
-1.28765
-1.19055
-1.29202
-1.04665
-1.03348
-0.877976
-0.752896
-0.619785
-0.483478
-0.345659
-0.207618
-0.0693126
55.278
55.2796
55.2883
55.305
55.3305
55.3656
55.4141
55.469
55.5564
55.6128
55.7384
55.7911
55.8658
-1.2975
-1.19972
-1.30073
-1.0546
-1.04071
-0.884271
-0.758265
-0.62419
-0.486903
-0.348102
-0.209083
-0.0698
55.2766
55.2777
55.2857
55.3021
55.3272
55.3621
55.4108
55.467
55.5552
55.6157
55.7458
55.803
55.8812
-1.30608
-1.20769
-1.30823
-1.06148
-1.04695
-0.889698
-0.762894
-0.627987
-0.489857
-0.350209
-0.210345
-0.0702203
55.2758
55.2762
55.2837
55.2997
55.3245
55.3593
55.4081
55.4654
55.5543
55.6183
55.7524
55.8138
55.8952
-1.31327
-1.21425
-1.31436
-1.06713
-1.05206
-0.894156
-0.7667
-0.631111
-0.492287
-0.351943
-0.211384
-0.070566
55.2768
55.2755
55.2823
55.2979
55.3225
55.3572
55.4061
55.4643
55.5538
55.6205
55.758
55.8228
55.907
-1.31897
-1.21946
-1.31904
-1.0715
-1.05599
-0.897576
-0.76962
-0.633506
-0.49415
-0.353272
-0.212181
-0.0708309
55.2766
55.2748
55.2813
55.2967
55.3212
55.3558
55.4048
55.4636
55.5535
55.622
55.7619
55.8294
55.9157
-1.32308
-1.22291
-1.32219
-1.07447
-1.05864
-0.899883
-0.771598
-0.635129
-0.495412
-0.354173
-0.21272
-0.07101
55.2819
55.2754
55.2809
55.2962
55.3206
55.3552
55.4042
55.4633
55.5535
55.6228
55.7654
55.8316
55.9209
-1.32553
-1.22532
-1.32372
-1.0761
-1.06001
-0.901041
-0.772612
-0.635955
-0.496053
-0.35463
-0.212994
-0.0710998
55.3496
55.3466
55.3578
55.3792
55.4093
55.4461
55.4928
55.5234
55.61
55.5942
55.711
55.6965
55.7436
-1.11874
-1.0275
-1.13262
-0.903209
-0.900858
-0.762973
-0.654163
-0.538428
-0.41992
-0.300125
-0.18022
-0.0601479
55.3431
55.3447
55.3571
55.3785
55.4086
55.4455
55.4922
55.5231
55.6095
55.5959
55.7062
55.6958
55.7442
-1.11935
-1.02837
-1.13424
-0.904414
-0.902077
-0.764051
-0.655055
-0.53916
-0.420489
-0.300529
-0.180462
-0.0602293
55.3404
55.3429
55.3555
55.377
55.4071
55.4441
55.4909
55.5223
55.6083
55.5966
55.7048
55.6956
55.7452
-1.12176
-1.03144
-1.13736
-0.907107
-0.904572
-0.766203
-0.656872
-0.540644
-0.421638
-0.301347
-0.180951
-0.0603919
55.3365
55.3402
55.3531
55.3748
55.4049
55.4419
55.4887
55.5208
55.6065
55.597
55.703
55.6958
55.7461
-1.12605
-1.03588
-1.14197
-0.911109
-0.908284
-0.769399
-0.659581
-0.542856
-0.423352
-0.302566
-0.18168
-0.0606343
55.3327
55.3371
55.3502
55.3719
55.402
55.439
55.4859
55.5188
55.604
55.597
55.701
55.696
55.7469
-1.13202
-1.04202
-1.14803
-0.916442
-0.91318
-0.773609
-0.66315
-0.545769
-0.425609
-0.30417
-0.18264
-0.0609533
55.3288
55.3335
55.3467
55.3684
55.3984
55.4354
55.4823
55.5162
55.6009
55.5966
55.6989
55.6963
55.7477
-1.13956
-1.04953
-1.15543
-0.92298
-0.919171
-0.778768
-0.667529
-0.549343
-0.428378
-0.30614
-0.183818
-0.0613448
55.3247
55.3296
55.3428
55.3644
55.3942
55.4312
55.4781
55.513
55.5973
55.596
55.6967
55.6966
55.7487
-1.14854
-1.05844
-1.16408
-0.930664
-0.92619
-0.784813
-0.672658
-0.553531
-0.431623
-0.308449
-0.185199
-0.0618036
55.3204
55.3253
55.3384
55.3598
55.3895
55.4263
55.4732
55.5093
55.5931
55.595
55.6944
55.6971
55.7498
-1.15881
-1.06851
-1.17385
-0.939366
-0.93413
-0.791658
-0.678467
-0.558274
-0.435298
-0.311064
-0.186763
-0.0623235
55.3159
55.3208
55.3338
55.3549
55.3843
55.421
55.4679
55.5051
55.5885
55.5936
55.6922
55.6978
55.7513
-1.17021
-1.07964
-1.1846
-0.948966
-0.942878
-0.799205
-0.684873
-0.563506
-0.439354
-0.31395
-0.18849
-0.0628973
55.3114
55.3161
55.3288
55.3497
55.3788
55.4152
55.4621
55.5005
55.5835
55.5921
55.6901
55.6988
55.7534
-1.18256
-1.09164
-1.19616
-0.959316
-0.952307
-0.807345
-0.691783
-0.569152
-0.44373
-0.317065
-0.190353
-0.0635167
55.3067
55.3113
55.3237
55.3442
55.3729
55.4091
55.4559
55.4956
55.5782
55.5906
55.6882
55.7004
55.7561
-1.19566
-1.10433
-1.20838
-0.970261
-0.962276
-0.815956
-0.699097
-0.575128
-0.448364
-0.320363
-0.192327
-0.0641729
55.302
55.3064
55.3185
55.3386
55.3669
55.4028
55.4494
55.4904
55.5727
55.589
55.6867
55.7029
55.7597
-1.20931
-1.11749
-1.22105
-0.981632
-0.972632
-0.824907
-0.706703
-0.581346
-0.453186
-0.323796
-0.194382
-0.0648559
55.2973
55.3015
55.3133
55.3329
55.3607
55.3963
55.4428
55.4851
55.5672
55.5875
55.6857
55.7063
55.7644
-1.22329
-1.13094
-1.23397
-0.99325
-0.983216
-0.834061
-0.714484
-0.587708
-0.458123
-0.327311
-0.196485
-0.0655554
55.2928
55.2968
55.3081
55.3273
55.3546
55.3898
55.4361
55.4797
55.5617
55.5862
55.6854
55.7106
55.7706
-1.23738
-1.14444
-1.24695
-1.00493
-0.993861
-0.843274
-0.722318
-0.594117
-0.463095
-0.330852
-0.198605
-0.0662605
55.2884
55.2922
55.3031
55.3217
55.3485
55.3834
55.4296
55.4745
55.5564
55.5853
55.6861
55.7162
55.7782
-1.25134
-1.15779
-1.25977
-1.01649
-1.0044
-0.852396
-0.73008
-0.600468
-0.468025
-0.334363
-0.200708
-0.0669598
55.2843
55.2878
55.2983
55.3164
55.3427
55.3772
55.4232
55.4694
55.5514
55.5847
55.6877
55.7227
55.7874
-1.26496
-1.17077
-1.27223
-1.02774
-1.01465
-0.861281
-0.737643
-0.606659
-0.472831
-0.337788
-0.202758
-0.0676419
55.2806
55.2838
55.2939
55.3114
55.3371
55.3712
55.4172
55.4646
55.5469
55.5846
55.6905
55.7304
55.7981
-1.27801
-1.18317
-1.28412
-1.03849
-1.02445
-0.869781
-0.744881
-0.612586
-0.477435
-0.341068
-0.204723
-0.0682955
55.2773
55.2802
55.2898
55.3068
55.332
55.3657
55.4116
55.4603
55.5428
55.5849
55.6942
55.7391
55.8101
-1.29029
-1.19479
-1.29524
-1.04857
-1.03363
-0.877753
-0.751673
-0.61815
-0.481756
-0.344148
-0.206568
-0.0689095
55.2745
55.2771
55.2862
55.3026
55.3273
55.3607
55.4065
55.4564
55.5393
55.5856
55.6986
55.7484
55.823
-1.3016
-1.20545
-1.30542
-1.05782
-1.04205
-0.885064
-0.757903
-0.623255
-0.485723
-0.346975
-0.208261
-0.0694731
55.2723
55.2745
55.283
55.299
55.3232
55.3563
55.402
55.4531
55.5364
55.5865
55.7035
55.7579
55.8361
-1.31177
-1.21496
-1.31446
-1.06606
-1.04955
-0.891587
-0.763463
-0.627813
-0.489265
-0.349501
-0.209774
-0.0699767
55.2708
55.2725
55.2804
55.2959
55.3197
55.3525
55.3982
55.4503
55.5341
55.5876
55.7084
55.7672
55.8489
-1.32062
-1.22323
-1.32224
-1.07319
-1.05602
-0.897212
-0.768257
-0.631744
-0.49232
-0.351679
-0.21108
-0.0704111
55.2701
55.2711
55.2784
55.2934
55.3168
55.3495
55.3951
55.448
55.5323
55.5886
55.713
55.7756
55.8606
-1.32804
-1.23003
-1.3286
-1.07905
-1.06132
-0.901833
-0.7722
-0.634977
-0.494834
-0.353472
-0.212154
-0.0707686
55.271
55.2703
55.2769
55.2916
55.3147
55.3471
55.3928
55.4463
55.531
55.5896
55.7169
55.7826
55.8704
-1.33392
-1.23543
-1.33347
-1.08359
-1.0654
-0.905379
-0.775226
-0.637458
-0.496762
-0.354847
-0.212978
-0.0710425
55.2708
55.2696
55.2759
55.2904
55.3133
55.3456
55.3912
55.4452
55.5302
55.5902
55.7195
55.7878
55.8776
-1.33816
-1.23901
-1.33674
-1.08667
-1.06815
-0.907772
-0.777276
-0.639139
-0.498069
-0.355779
-0.213536
-0.0712278
55.276
55.2702
55.2755
55.2899
55.3126
55.3449
55.3905
55.4448
55.5299
55.5906
55.7221
55.7909
55.8816
-1.34069
-1.24149
-1.33833
-1.08834
-1.06957
-0.908972
-0.778326
-0.639994
-0.498733
-0.356252
-0.213819
-0.0713208
55.3421
55.3403
55.3517
55.3731
55.4029
55.4396
55.4859
55.5168
55.6027
55.5884
55.7032
55.6908
55.7384
-1.13188
-1.03999
-1.14328
-0.91191
-0.906535
-0.767565
-0.656715
-0.539681
-0.420289
-0.299998
-0.179933
-0.0599722
55.3356
55.3384
55.3509
55.3724
55.4022
55.4389
55.4854
55.5165
55.6021
55.5902
55.698
55.6899
55.7391
-1.13257
-1.04094
-1.14497
-0.913181
-0.907808
-0.768689
-0.657644
-0.540442
-0.420879
-0.300416
-0.180183
-0.060056
55.3329
55.3366
55.3494
55.3709
55.4007
55.4374
55.4839
55.5155
55.6007
55.5907
55.6964
55.6895
55.74
-1.1351
-1.04417
-1.14825
-0.916007
-0.910416
-0.770933
-0.659534
-0.541983
-0.422071
-0.301263
-0.180689
-0.0602242
55.329
55.3338
55.347
55.3686
55.3984
55.4351
55.4816
55.5138
55.5986
55.5907
55.6941
55.6894
55.7407
-1.13962
-1.04886
-1.1531
-0.920204
-0.914295
-0.774267
-0.662354
-0.544281
-0.423849
-0.302526
-0.181444
-0.060475
55.3252
55.3307
55.344
55.3656
55.3954
55.4321
55.4785
55.5115
55.5958
55.5902
55.6916
55.6892
55.7412
-1.14591
-1.05534
-1.15947
-0.925799
-0.919414
-0.778661
-0.666071
-0.547309
-0.426191
-0.304191
-0.182438
-0.0608054
55.3213
55.327
55.3405
55.362
55.3917
55.4283
55.4746
55.5085
55.5922
55.5893
55.6887
55.6888
55.7414
-1.15384
-1.06326
-1.16725
-0.932659
-0.925682
-0.784048
-0.670633
-0.551027
-0.429067
-0.306234
-0.18366
-0.0612112
55.3171
55.323
55.3365
55.3579
55.3873
55.4238
55.4701
55.5048
55.5879
55.5879
55.6856
55.6883
55.7415
-1.16329
-1.07265
-1.17635
-0.940724
-0.933029
-0.790364
-0.67598
-0.555385
-0.43244
-0.308631
-0.185093
-0.061687
55.3128
55.3187
55.3321
55.3532
55.3824
55.4186
55.4648
55.5005
55.583
55.5858
55.6821
55.6876
55.7415
-1.17409
-1.08327
-1.18663
-0.949862
-0.941345
-0.797519
-0.68204
-0.560325
-0.436263
-0.311349
-0.186718
-0.0622267
55.3083
55.3141
55.3273
55.3482
55.377
55.413
55.459
55.4956
55.5775
55.5832
55.6783
55.6868
55.7415
-1.18609
-1.09501
-1.19795
-0.959946
-0.950515
-0.805414
-0.688728
-0.565779
-0.440484
-0.31435
-0.188512
-0.0628228
55.3037
55.3094
55.3223
55.3427
55.3712
55.4068
55.4525
55.4902
55.5714
55.5802
55.6742
55.686
55.7416
-1.19908
-1.10766
-1.21014
-0.970825
-0.960404
-0.813935
-0.695949
-0.571668
-0.445044
-0.317592
-0.190451
-0.0634669
55.2989
55.3045
55.317
55.3371
55.3651
55.4003
55.4457
55.4843
55.5648
55.5768
55.6698
55.6854
55.7419
-1.21287
-1.12105
-1.22301
-0.982334
-0.970866
-0.822957
-0.703597
-0.577908
-0.449877
-0.321028
-0.192506
-0.0641498
55.2942
55.2995
55.3117
55.3313
55.3587
55.3934
55.4385
55.4779
55.5578
55.573
55.6653
55.6851
55.7425
-1.22723
-1.13494
-1.23637
-0.994297
-0.981744
-0.832343
-0.711558
-0.584406
-0.45491
-0.324608
-0.194647
-0.0648614
55.2895
55.2946
55.3063
55.3254
55.3522
55.3864
55.431
55.4713
55.5506
55.5689
55.6608
55.6851
55.7438
-1.24194
-1.14913
-1.25001
-1.00653
-0.992868
-0.841948
-0.719709
-0.591061
-0.460066
-0.328276
-0.196841
-0.0655908
55.2849
55.2897
55.301
55.3195
55.3457
55.3794
55.4235
55.4646
55.5433
55.5647
55.6567
55.6857
55.7457
-1.25676
-1.16338
-1.2637
-1.01883
-1.00406
-0.851621
-0.727922
-0.59777
-0.465266
-0.331976
-0.199055
-0.0663267
55.2805
55.285
55.2959
55.3138
55.3393
55.3724
55.416
55.4578
55.536
55.5605
55.6532
55.6866
55.7487
-1.27145
-1.17747
-1.27724
-1.03101
-1.01515
-0.861206
-0.736065
-0.604425
-0.470425
-0.335648
-0.201252
-0.0670573
55.2763
55.2806
55.291
55.3083
55.3331
55.3655
55.4087
55.4512
55.5289
55.5565
55.6504
55.6883
55.7528
-1.28577
-1.19117
-1.29039
-1.04286
-1.02594
-0.870547
-0.744006
-0.610917
-0.475459
-0.339231
-0.203397
-0.0677706
55.2725
55.2766
55.2864
55.303
55.3272
55.359
55.4017
55.4449
55.5222
55.5528
55.6484
55.691
55.7581
-1.2995
-1.20426
-1.30295
-1.05419
-1.03627
-0.879489
-0.75161
-0.617136
-0.480284
-0.342666
-0.205453
-0.0684546
55.2692
55.2729
55.2822
55.2982
55.3217
55.3529
55.3951
55.439
55.516
55.5496
55.6474
55.6945
55.7645
-1.31241
-1.21652
-1.31469
-1.06482
-1.04595
-0.887881
-0.758751
-0.622979
-0.484818
-0.345895
-0.207386
-0.0690976
55.2663
55.2697
55.2785
55.2939
55.3167
55.3474
55.3891
55.4336
55.5105
55.5468
55.6472
55.6987
55.7717
-1.32431
-1.22777
-1.32544
-1.07457
-1.05482
-0.89558
-0.765304
-0.628342
-0.488981
-0.34886
-0.209162
-0.0696884
55.2641
55.267
55.2753
55.29
55.3122
55.3424
55.3838
55.4289
55.5056
55.5445
55.6477
55.7032
55.7793
-1.33499
-1.2378
-1.33499
-1.08327
-1.06273
-0.902451
-0.771155
-0.633134
-0.492701
-0.35151
-0.210749
-0.0702165
55.2626
55.265
55.2726
55.2868
55.3085
55.3382
55.3792
55.4248
55.5015
55.5427
55.6485
55.7077
55.7867
-1.34429
-1.24651
-1.34321
-1.09078
-1.06956
-0.908378
-0.776203
-0.637268
-0.495911
-0.353798
-0.212119
-0.0706723
55.2618
55.2635
55.2704
55.2842
55.3054
55.3347
55.3755
55.4215
55.4982
55.5412
55.6495
55.7118
55.7936
-1.35208
-1.25368
-1.34993
-1.09697
-1.07515
-0.913248
-0.780355
-0.64067
-0.498554
-0.355681
-0.213247
-0.0710477
55.2627
55.2627
55.2689
55.2822
55.3031
55.3321
55.3727
55.419
55.4957
55.5401
55.6503
55.7151
55.7992
-1.35825
-1.25936
-1.35507
-1.10175
-1.07945
-0.916987
-0.783542
-0.643281
-0.500581
-0.357125
-0.214112
-0.0713355
55.2624
55.262
55.2679
55.2809
55.3015
55.3304
55.3708
55.4173
55.494
55.5394
55.6507
55.7175
55.8031
-1.3627
-1.26312
-1.35852
-1.10499
-1.08236
-0.919511
-0.785702
-0.64505
-0.501955
-0.358105
-0.214699
-0.0715303
55.2676
55.2626
55.2675
55.2804
55.3009
55.3296
55.3699
55.4165
55.4933
55.5393
55.6513
55.7189
55.8051
-1.36533
-1.2657
-1.36022
-1.10675
-1.08386
-0.920776
-0.786807
-0.64595
-0.502654
-0.358603
-0.214996
-0.0716284
55.3336
55.3323
55.3438
55.365
55.3945
55.4308
55.4768
55.508
55.593
55.5804
55.6931
55.6828
55.731
-1.14993
-1.05679
-1.15739
-0.923433
-0.913921
-0.773468
-0.659921
-0.54116
-0.420614
-0.299699
-0.179465
-0.0597066
55.3271
55.3305
55.343
55.3643
55.3938
55.4301
55.4762
55.5076
55.5923
55.5821
55.6876
55.6819
55.7316
-1.15071
-1.05785
-1.15919
-0.924792
-0.915268
-0.774653
-0.660897
-0.541958
-0.421231
-0.300136
-0.179726
-0.0597935
55.3244
55.3286
55.3414
55.3627
55.3922
55.4285
55.4746
55.5064
55.5907
55.5824
55.6858
55.6812
55.7324
-1.15344
-1.06131
-1.16268
-0.927795
-0.918026
-0.777021
-0.662886
-0.543575
-0.422479
-0.301021
-0.180254
-0.0599689
55.3204
55.3258
55.339
55.3604
55.3898
55.4261
55.4721
55.5045
55.5882
55.582
55.6829
55.6807
55.7328
-1.15828
-1.06635
-1.16785
-0.932258
-0.922131
-0.78054
-0.665855
-0.545989
-0.424343
-0.302343
-0.181043
-0.0602309
55.3166
55.3226
55.336
55.3573
55.3867
55.4228
55.4687
55.5017
55.5848
55.5809
55.6796
55.6798
55.7326
-1.16501
-1.07328
-1.17464
-0.938206
-0.927551
-0.785181
-0.669768
-0.54917
-0.426799
-0.304086
-0.182084
-0.0605764
55.3126
55.3189
55.3324
55.3536
55.3828
55.4188
55.4645
55.4982
55.5806
55.5792
55.6758
55.6785
55.732
-1.17348
-1.08176
-1.18293
-0.945502
-0.934191
-0.790874
-0.674575
-0.553078
-0.429818
-0.306229
-0.183364
-0.061001
55.3085
55.3148
55.3283
55.3493
55.3782
55.4139
55.4594
55.4939
55.5756
55.5766
55.6714
55.6767
55.7309
-1.18358
-1.0918
-1.19265
-0.954083
-0.94198
-0.797553
-0.680215
-0.557664
-0.43336
-0.308743
-0.184866
-0.0614996
55.3041
55.3104
55.3238
55.3445
55.373
55.4084
55.4536
55.4888
55.5696
55.5732
55.6662
55.6744
55.7292
-1.19513
-1.10317
-1.20363
-0.96381
-0.950804
-0.805126
-0.686612
-0.562868
-0.43738
-0.311597
-0.18657
-0.0620655
55.2995
55.3058
55.3189
55.3392
55.3673
55.4023
55.4471
55.483
55.5629
55.5689
55.6601
55.6715
55.727
-1.20795
-1.11573
-1.21573
-0.974551
-0.960541
-0.81349
-0.693679
-0.568618
-0.441824
-0.314752
-0.188455
-0.0626913
55.2948
55.3009
55.3137
55.3336
55.3612
55.3957
55.4399
55.4764
55.5553
55.5638
55.6531
55.6681
55.7242
-1.22184
-1.12928
-1.22876
-0.986146
-0.971053
-0.822527
-0.701317
-0.574836
-0.44663
-0.318165
-0.190495
-0.0633684
55.29
55.2959
55.3083
55.3277
55.3547
55.3886
55.4322
55.4691
55.547
55.5577
55.6452
55.664
55.7208
-1.23658
-1.14362
-1.24253
-0.998422
-0.982184
-0.832103
-0.709416
-0.581431
-0.451729
-0.321786
-0.192659
-0.0640872
55.2852
55.2909
55.3028
55.3217
55.3479
55.3811
55.424
55.4613
55.538
55.5507
55.6364
55.6594
55.7167
-1.25193
-1.1585
-1.25683
-1.01119
-0.993768
-0.842076
-0.717856
-0.588306
-0.457045
-0.325564
-0.194916
-0.0648371
55.2804
55.2858
55.2973
55.3155
55.341
55.3734
55.4155
55.453
55.5284
55.5429
55.627
55.6541
55.7121
-1.26766
-1.17371
-1.27143
-1.02425
-1.00563
-0.852293
-0.726507
-0.595357
-0.4625
-0.329439
-0.197233
-0.0656068
55.2758
55.2809
55.2919
55.3094
55.3341
55.3656
55.4067
55.4444
55.5185
55.5344
55.6172
55.648
55.7072
-1.2835
-1.18898
-1.28611
-1.0374
-1.01757
-0.862591
-0.735234
-0.602472
-0.468006
-0.333352
-0.199573
-0.0663843
55.2713
55.2761
55.2866
55.3034
55.3272
55.3578
55.398
55.4356
55.5084
55.5256
55.6073
55.6417
55.7023
-1.29921
-1.20408
-1.30061
-1.05042
-1.02941
-0.872806
-0.743895
-0.609538
-0.473475
-0.33724
-0.201898
-0.0671571
55.2671
55.2716
55.2815
55.2976
55.3205
55.3502
55.3894
55.4269
55.4984
55.5167
55.5978
55.6355
55.6978
-1.31453
-1.21877
-1.31472
-1.0631
-1.04094
-0.882769
-0.752349
-0.616437
-0.478818
-0.341039
-0.20417
-0.0679124
55.2632
55.2674
55.2768
55.2921
55.3141
55.3429
55.3811
55.4184
55.4887
55.5079
55.5889
55.6298
55.6938
-1.3292
-1.23279
-1.32818
-1.07523
-1.05198
-0.892313
-0.760452
-0.623055
-0.483944
-0.344685
-0.206351
-0.0686376
55.2598
55.2637
55.2724
55.287
55.3082
55.336
55.3732
55.4104
55.4794
55.4995
55.5808
55.6247
55.6906
-1.343
-1.24593
-1.34078
-1.0866
-1.06234
-0.901276
-0.768067
-0.629276
-0.488765
-0.348114
-0.208403
-0.0693199
55.2569
55.2604
55.2685
55.2824
55.3027
55.3297
55.366
55.403
55.4709
55.4918
55.5736
55.6202
55.688
-1.3557
-1.25798
-1.35231
-1.09704
-1.07184
-0.909504
-0.775061
-0.634992
-0.493196
-0.351267
-0.21029
-0.0699475
55.2546
55.2577
55.2652
55.2783
55.2979
55.3241
55.3596
55.3963
55.4632
55.4849
55.5673
55.6162
55.6859
-1.3671
-1.26872
-1.36256
-1.10635
-1.08031
-0.916851
-0.78131
-0.640102
-0.497158
-0.354086
-0.211977
-0.0705089
55.253
55.2555
55.2624
55.2749
55.2938
55.3193
55.3541
55.3906
55.4565
55.4788
55.5618
55.6125
55.684
-1.37702
-1.27804
-1.37138
-1.1144
-1.08761
-0.92319
-0.786703
-0.644513
-0.500579
-0.356522
-0.213435
-0.0709939
55.2522
55.254
55.2602
55.2721
55.2904
55.3153
55.3495
55.3858
55.4509
55.4737
55.5571
55.609
55.682
-1.38533
-1.28571
-1.37859
-1.12102
-1.09361
-0.928402
-0.791142
-0.648145
-0.503397
-0.358528
-0.214636
-0.0713935
55.2531
55.2532
55.2586
55.2701
55.2879
55.3123
55.346
55.3821
55.4466
55.4698
55.5533
55.6057
55.6797
-1.39189
-1.29177
-1.38411
-1.12614
-1.09822
-0.932402
-0.794549
-0.650933
-0.50556
-0.360068
-0.215559
-0.0717002
55.2528
55.2525
55.2575
55.2687
55.2862
55.3103
55.3436
55.3796
55.4436
55.4671
55.5501
55.6029
55.6773
-1.39662
-1.29579
-1.38781
-1.12961
-1.10134
-0.935104
-0.796858
-0.652822
-0.507026
-0.361112
-0.216184
-0.071908
55.2578
55.2531
55.257
55.2681
55.2854
55.3094
55.3425
55.3785
55.4421
55.466
55.5489
55.599
55.6751
-1.3994
-1.2985
-1.38963
-1.13148
-1.10294
-0.936458
-0.798039
-0.653784
-0.507772
-0.361643
-0.216502
-0.072013
55.3238
55.3227
55.3342
55.3551
55.3841
55.42
55.4655
55.4969
55.5809
55.5703
55.6804
55.6727
55.7213
-1.17298
-1.07796
-1.17493
-0.93774
-0.922921
-0.780549
-0.663655
-0.542742
-0.420788
-0.299147
-0.178768
-0.0593339
55.3172
55.321
55.3333
55.3543
55.3834
55.4192
55.4647
55.4964
55.58
55.5719
55.6748
55.6716
55.7219
-1.1739
-1.07916
-1.17686
-0.939211
-0.924359
-0.781811
-0.664692
-0.543586
-0.421439
-0.299607
-0.179041
-0.0594247
55.3145
55.319
55.3317
55.3527
55.3817
55.4175
55.463
55.495
55.5781
55.5717
55.6727
55.6707
55.7224
-1.17686
-1.08292
-1.18062
-0.942439
-0.927306
-0.784334
-0.666803
-0.545297
-0.422757
-0.300541
-0.179597
-0.059609
55.3105
55.3161
55.3293
55.3502
55.3792
55.4149
55.4602
55.4927
55.5752
55.5708
55.6693
55.6696
55.7223
-1.18212
-1.08839
-1.1862
-0.947239
-0.931696
-0.788085
-0.669956
-0.547854
-0.424727
-0.301936
-0.180429
-0.0598848
55.3067
55.3129
55.3262
55.3471
55.3759
55.4114
55.4565
55.4895
55.5713
55.569
55.6651
55.6679
55.7214
-1.18942
-1.0959
-1.19353
-0.953634
-0.937494
-0.793035
-0.674116
-0.551226
-0.427325
-0.303776
-0.181527
-0.0602488
55.3027
55.3091
55.3225
55.3432
55.3718
55.407
55.4518
55.4854
55.5663
55.5662
55.6601
55.6654
55.7196
-1.19861
-1.1051
-1.20249
-0.961483
-0.944604
-0.799112
-0.67923
-0.555373
-0.430521
-0.306041
-0.182878
-0.0606969
55.2985
55.305
55.3183
55.3388
55.3669
55.4018
55.4463
55.4803
55.5602
55.5623
55.654
55.662
55.7169
-1.20955
-1.11598
-1.21299
-0.970718
-0.952952
-0.806249
-0.685236
-0.560244
-0.434276
-0.308703
-0.184466
-0.0612236
55.294
55.3005
55.3136
55.3338
55.3615
55.3958
55.4398
55.4743
55.5531
55.5572
55.6465
55.6576
55.713
-1.22208
-1.12831
-1.22486
-0.981196
-0.962419
-0.81435
-0.692057
-0.565778
-0.438543
-0.311727
-0.186271
-0.0618223
55.2894
55.2957
55.3086
55.3283