/*--------------------------------*- C++ -*----------------------------------*\
| =========                 |                                                 |
| \\      /  F ield         | OpenFOAM: The Open Source CFD Toolbox           |
|  \\    /   O peration     | Version:  2306                                  |
|   \\  /    A nd           | Website:  www.openfoam.com                      |
|    \\/     M anipulation  |                                                 |
\*---------------------------------------------------------------------------*/
FoamFile
{
    version     2.0;
    format      ascii;
    arch        "LSB;label=32;scalar=64";
    class       volScalarField;
    location    "0.3";
    object      p;
}
// * * * * * * * * * * * * * * * * * * * * * * * * * * * * * * * * * * * * * //

dimensions      [0 2 -2 0 0 0 0];

internalField   nonuniform List<scalar> 
288632
(
42.4661
42.4615
42.4738
42.4976
42.5306
42.5706
42.6146
42.6581
42.6966
42.6929
43.3534
41.8291
42.3608
0.58275
0.787033
0.229051
0.220771
0.207724
0.188521
0.16496
0.138207
0.109163
0.0785449
0.0466074
0.0152629
42.4614
42.46
42.473
42.497
42.5302
42.5705
42.6148
42.6588
42.6978
42.6944
43.3488
41.8263
42.3633
0.581381
0.79089
0.228534
0.220632
0.207496
0.188281
0.164746
0.138028
0.109023
0.0784445
0.046546
0.0152415
42.4577
42.4578
42.4713
42.4957
42.5292
42.5699
42.615
42.66
42.7003
42.6989
43.343
41.826
42.3628
0.582276
0.787861
0.227293
0.219792
0.206903
0.18778
0.164318
0.137674
0.108745
0.0782454
0.0464259
0.015201
42.4538
42.4548
42.4689
42.4937
42.5277
42.5691
42.6151
42.6616
42.7039
42.7056
43.3338
41.8262
42.362
0.583994
0.788289
0.226514
0.218895
0.206067
0.187042
0.163684
0.137149
0.108334
0.0779503
0.0462484
0.0151417
42.4498
42.4513
42.4659
42.4911
42.5256
42.5678
42.6152
42.6637
42.7085
42.7143
43.3215
41.8268
42.3611
0.582897
0.786857
0.225276
0.217713
0.204977
0.186075
0.162851
0.136459
0.107794
0.077563
0.0460159
0.0150642
42.4455
42.4473
42.4623
42.4879
42.523
42.5662
42.6153
42.6661
42.7141
42.7252
43.3063
41.828
42.3604
0.581275
0.785015
0.223777
0.216271
0.203649
0.184892
0.16183
0.135614
0.107131
0.0770885
0.0457312
0.0149693
42.4408
42.4429
42.4581
42.4841
42.5199
42.5643
42.6151
42.6688
42.7205
42.7379
43.2887
41.8305
42.3602
0.579252
0.782741
0.222021
0.214585
0.202096
0.183507
0.160636
0.134624
0.106356
0.0765332
0.0453981
0.0148584
42.4358
42.4381
42.4535
42.4798
42.5163
42.5619
42.6148
42.6716
42.7278
42.7524
43.2693
41.8347
42.361
0.576856
0.780091
0.220024
0.212672
0.200337
0.181937
0.159282
0.133504
0.105479
0.0759046
0.045021
0.0147329
42.4306
42.4329
42.4485
42.4752
42.5123
42.5592
42.6143
42.6746
42.7356
42.7684
43.2485
41.8412
42.3634
0.574149
0.777116
0.217801
0.210553
0.198391
0.180203
0.157788
0.132267
0.104511
0.0752112
0.044605
0.0145945
42.4251
42.4275
42.4432
42.4701
42.5079
42.556
42.6135
42.6775
42.7438
42.7854
43.2273
41.8504
42.3679
0.571178
0.773876
0.215382
0.208254
0.196285
0.178329
0.156173
0.130931
0.103466
0.0744628
0.0441561
0.0144452
42.4195
42.4219
42.4376
42.4647
42.5031
42.5525
42.6124
42.6802
42.7522
42.8032
43.2065
41.8631
42.3752
0.567983
0.770419
0.212792
0.205806
0.194046
0.17634
0.154461
0.129516
0.102359
0.0736702
0.0436808
0.0142871
42.4138
42.4161
42.4318
42.4591
42.498
42.5487
42.6109
42.6827
42.7606
42.8213
43.1871
41.8796
42.3858
0.564629
0.766809
0.210071
0.203242
0.191707
0.174264
0.152677
0.128042
0.101207
0.0728452
0.0431861
0.0141226
42.4081
42.4103
42.426
42.4534
42.4927
42.5446
42.6091
42.685
42.7689
42.8395
43.17
41.9005
42.4001
0.561156
0.763108
0.207259
0.200601
0.189303
0.172132
0.150846
0.126531
0.100026
0.0720005
0.0426796
0.013954
42.4025
42.4046
42.4202
42.4476
42.4873
42.5403
42.6071
42.6869
42.7769
42.8572
43.1561
41.9259
42.4186
0.557623
0.759371
0.204395
0.197922
0.186869
0.169978
0.148998
0.125006
0.0988352
0.071149
0.0421692
0.0137842
42.397
42.3991
42.4145
42.4418
42.4819
42.5359
42.6048
42.6884
42.7845
42.8744
43.146
41.9559
42.4416
0.554043
0.755646
0.201531
0.195249
0.184444
0.167836
0.147162
0.123493
0.0976537
0.0703044
0.0416629
0.0136157
42.3919
42.3938
42.4089
42.4362
42.4765
42.5314
42.6024
42.6897
42.7917
42.8908
43.1401
41.9902
42.469
0.55053
0.751995
0.198714
0.192626
0.18207
0.16574
0.145367
0.122014
0.0965005
0.0694804
0.0411691
0.0134515
42.3871
42.3888
42.4037
42.4308
42.4712
42.5269
42.5998
42.6907
42.7983
42.9062
43.1383
42.0282
42.5004
0.547088
0.748472
0.195992
0.190099
0.179786
0.163727
0.143645
0.120596
0.0953947
0.0686905
0.040696
0.0132941
42.3828
42.3843
42.3989
42.4258
42.4663
42.5226
42.5973
42.6915
42.8045
42.9205
43.1405
42.0689
42.535
0.543834
0.745128
0.193414
0.187713
0.177634
0.161832
0.142024
0.119263
0.0943554
0.0679483
0.0402516
0.0131464
42.3791
42.3804
42.3946
42.4212
42.4617
42.5186
42.5949
42.6922
42.8101
42.9337
43.1459
42.1111
42.5718
0.54077
0.742005
0.19103
0.185513
0.175652
0.160088
0.140535
0.118037
0.0934004
0.0672665
0.0398434
0.0130108
42.3761
42.377
42.3909
42.4172
42.4576
42.515
42.5926
42.6927
42.8151
42.9455
43.1536
42.1533
42.6094
0.537936
0.739142
0.188892
0.183541
0.173878
0.158528
0.139202
0.116942
0.0925466
0.0666571
0.0394787
0.0128897
42.3739
42.3744
42.3877
42.4137
42.4541
42.5119
42.5907
42.6931
42.8195
42.9559
43.1626
42.1939
42.6462
0.535352
0.736568
0.187048
0.181837
0.172347
0.157181
0.138051
0.115995
0.0918095
0.0661312
0.039164
0.0127852
42.3726
42.3724
42.3853
42.4109
42.4512
42.5093
42.589
42.6935
42.8232
42.9646
43.1715
42.231
42.6805
0.533037
0.734534
0.185557
0.180434
0.17109
0.156072
0.137103
0.115216
0.0912023
0.065698
0.0389048
0.0126993
42.3723
42.3713
42.3835
42.4088
42.449
42.5073
42.5878
42.6938
42.8261
42.9715
43.1795
42.2632
42.7103
0.532535
0.730988
0.184151
0.179339
0.17013
0.155223
0.136375
0.114617
0.0907361
0.0653654
0.038706
0.0126335
42.3734
42.3708
42.3824
42.4075
42.4476
42.506
42.587
42.6941
42.8281
42.9763
43.1851
42.2876
42.7339
0.533059
0.732619
0.18395
0.178889
0.169523
0.15465
0.135881
0.11421
0.0904195
0.0651396
0.0385714
0.0125892
42.3766
42.371
42.382
42.4069
42.4469
42.5055
42.5868
42.6944
42.8294
42.9791
43.1894
42.3002
42.7499
0.531729
0.727398
0.183773
0.178337
0.169128
0.154345
0.135628
0.114003
0.0902581
0.0650246
0.0385036
0.0125676
42.4602
42.4587
42.4716
42.4955
42.5286
42.5686
42.6127
42.6564
42.695
42.6912
43.3464
41.8242
42.3613
0.583087
0.785669
0.229731
0.221182
0.20798
0.18868
0.165075
0.138309
0.109267
0.0786473
0.0466914
0.0153008
42.4556
42.4573
42.4707
42.4949
42.5281
42.5684
42.6128
42.657
42.6962
42.6929
43.3416
41.8212
42.3637
0.581857
0.78932
0.229194
0.221023
0.207738
0.188431
0.164856
0.138128
0.109124
0.0785453
0.0466291
0.015279
42.4518
42.455
42.4691
42.4935
42.5271
42.5678
42.613
42.6582
42.6987
42.6974
43.3356
41.8208
42.3632
0.582807
0.786327
0.227958
0.22019
0.207139
0.187924
0.164421
0.137768
0.108843
0.0783433
0.0465073
0.015238
42.4479
42.4521
42.4667
42.4915
42.5255
42.5669
42.613
42.6597
42.7022
42.704
43.3262
41.8209
42.3625
0.584545
0.78664
0.227132
0.219266
0.206287
0.187173
0.163776
0.137234
0.108425
0.0780438
0.0463274
0.0151779
42.4439
42.4485
42.4636
42.4888
42.5233
42.5655
42.613
42.6616
42.7067
42.7127
43.3136
41.8213
42.3617
0.583392
0.785183
0.225874
0.218063
0.205178
0.186189
0.162929
0.136533
0.107876
0.0776507
0.0460916
0.0150993
42.4395
42.4445
42.4599
42.4855
42.5206
42.5638
42.6129
42.6639
42.7121
42.7235
43.2981
41.8223
42.361
0.58177
0.783301
0.224349
0.216593
0.203826
0.184984
0.161892
0.135674
0.107204
0.0771691
0.0458028
0.0150032
42.4348
42.44
42.4557
42.4817
42.5174
42.5617
42.6126
42.6663
42.7184
42.7361
43.2801
41.8246
42.3609
0.579722
0.780976
0.222559
0.214876
0.202245
0.183574
0.160676
0.134669
0.106416
0.0766054
0.0454648
0.0148907
42.4298
42.4351
42.451
42.4773
42.5137
42.5591
42.612
42.6689
42.7253
42.7504
43.2601
41.8286
42.3618
0.577299
0.778267
0.220521
0.212925
0.200451
0.181976
0.159299
0.133529
0.105525
0.0759671
0.045082
0.0147634
42.4245
42.4299
42.4459
42.4726
42.5095
42.5562
42.6112
42.6715
42.7327
42.766
43.2388
41.8348
42.3643
0.574556
0.775227
0.218253
0.210765
0.198469
0.180211
0.157779
0.132272
0.104541
0.0752629
0.0446598
0.014623
42.419
42.4244
42.4405
42.4674
42.5049
42.5528
42.61
42.6739
42.7405
42.7827
43.2169
41.8438
42.369
0.571545
0.771914
0.215784
0.20842
0.196322
0.178301
0.156135
0.130913
0.103479
0.0745026
0.0442041
0.0144716
42.4133
42.4187
42.4349
42.4619
42.4999
42.5491
42.6085
42.6762
42.7483
42.7999
43.1954
41.8563
42.3765
0.568316
0.76838
0.21314
0.205922
0.19404
0.176275
0.154392
0.129473
0.102354
0.0736973
0.0437214
0.0143112
42.4076
42.4129
42.429
42.4561
42.4947
42.5449
42.6067
42.6781
42.7561
42.8172
43.1752
41.8727
42.3872
0.564918
0.764688
0.210361
0.203306
0.191654
0.174159
0.152575
0.127973
0.101182
0.0728589
0.0432189
0.0141441
42.4018
42.4071
42.4231
42.4503
42.4892
42.5405
42.6044
42.6797
42.7635
42.8344
43.1573
41.8935
42.4017
0.561401
0.760902
0.207491
0.20061
0.189201
0.171986
0.15071
0.126435
0.0999806
0.0720002
0.0427043
0.0139729
42.3961
42.4013
42.4172
42.4443
42.4835
42.5359
42.6019
42.681
42.7706
42.851
43.1426
41.919
42.4203
0.557804
0.757074
0.204571
0.197875
0.186717
0.16979
0.148827
0.124883
0.0987692
0.0711344
0.0421855
0.0138004
42.3907
42.3957
42.4113
42.4384
42.4778
42.5311
42.5991
42.6818
42.7772
42.8667
43.1317
41.949
42.4434
0.554184
0.753265
0.201645
0.195145
0.184243
0.167604
0.146956
0.123341
0.0975667
0.0702754
0.0416709
0.0136292
42.3855
42.3903
42.4057
42.4326
42.4722
42.5262
42.5961
42.6823
42.7833
42.8816
43.125
41.9834
42.4708
0.550592
0.749533
0.198766
0.192466
0.181819
0.165466
0.145126
0.121835
0.0963928
0.069437
0.0411688
0.0134623
42.3806
42.3853
42.4004
42.4271
42.4668
42.5214
42.5931
42.6826
42.7889
42.8954
43.1225
42.0215
42.5023
0.547136
0.745936
0.195982
0.189884
0.179487
0.163412
0.14337
0.120391
0.095267
0.0686333
0.0406876
0.0133024
42.3763
42.3808
42.3955
42.4219
42.4616
42.5168
42.59
42.6827
42.794
42.9081
43.1238
42.0623
42.5369
0.543821
0.742521
0.193346
0.187445
0.177288
0.161477
0.141717
0.119032
0.0942084
0.0678778
0.0402355
0.0131522
42.3726
42.3767
42.3912
42.4172
42.4568
42.5125
42.5871
42.6826
42.7986
42.9197
43.1285
42.1048
42.5737
0.540719
0.739337
0.190908
0.185195
0.175263
0.159697
0.140197
0.117783
0.0932356
0.0671837
0.0398202
0.0130143
42.3695
42.3733
42.3873
42.4131
42.4525
42.5086
42.5844
42.6825
42.8027
42.9301
43.1354
42.1473
42.6114
0.537834
0.73642
0.188719
0.183179
0.17345
0.158104
0.138838
0.116665
0.0923659
0.0665633
0.039449
0.0128911
42.3672
42.3706
42.3841
42.4095
42.4488
42.5052
42.5821
42.6823
42.8062
42.9392
43.1434
42.1883
42.6483
0.535241
0.733801
0.186829
0.181436
0.171885
0.156728
0.137663
0.1157
0.0916148
0.0660277
0.0391286
0.0127847
42.3659
42.3687
42.3816
42.4066
42.4458
42.5024
42.5801
42.6822
42.8092
42.9468
43.1515
42.2259
42.6828
0.532885
0.73173
0.185296
0.18
0.170599
0.155596
0.136696
0.114905
0.0909961
0.0655865
0.0388648
0.0126973
42.3656
42.3675
42.3798
42.4045
42.4435
42.5003
42.5787
42.6821
42.8116
42.9528
43.1585
42.2587
42.7128
0.532382
0.728231
0.183893
0.178888
0.16962
0.154728
0.135953
0.114295
0.090521
0.0652478
0.0386624
0.0126303
42.3667
42.367
42.3787
42.4031
42.442
42.4989
42.5777
42.6822
42.8133
42.9572
43.1629
42.2837
42.7366
0.532916
0.729765
0.183659
0.178408
0.16899
0.154141
0.135448
0.11388
0.0901982
0.0650178
0.0385252
0.0125852
42.3699
42.3671
42.3783
42.4025
42.4414
42.4983
42.5774
42.6824
42.8144
42.9604
43.1636
42.2987
42.7529
0.531493
0.724765
0.183481
0.177857
0.168598
0.153834
0.13519
0.113668
0.0900337
0.0649005
0.0384562
0.0125631
42.4539
42.4538
42.4671
42.4912
42.5242
42.5643
42.6086
42.6527
42.692
42.6894
43.3359
41.8186
42.3558
0.581649
0.778808
0.23133
0.222204
0.208694
0.189191
0.165476
0.138659
0.109589
0.0789358
0.0469127
0.0153962
42.4492
42.4524
42.4663
42.4905
42.5237
42.5641
42.6087
42.6533
42.6931
42.6911
43.3309
41.8155
42.3584
0.580472
0.782425
0.230803
0.222027
0.208439
0.188932
0.165251
0.138472
0.109443
0.0788308
0.0468487
0.0153739
42.4454
42.4501
42.4646
42.4891
42.5226
42.5634
42.6087
42.6543
42.6955
42.6955
43.3245
41.815
42.3579
0.58143
0.779475
0.229566
0.221187
0.207822
0.188409
0.164802
0.138101
0.109152
0.078623
0.0467236
0.0153319
42.4415
42.4471
42.4621
42.487
42.5209
42.5623
42.6086
42.6557
42.6988
42.702
43.3145
41.815
42.3571
0.583122
0.779663
0.228679
0.220225
0.20694
0.187634
0.164136
0.137551
0.108722
0.0783148
0.0465387
0.0152702
42.4374
42.4435
42.4589
42.4842
42.5186
42.5608
42.6083
42.6573
42.703
42.7106
43.3011
41.8153
42.3561
0.581936
0.778153
0.227381
0.218978
0.205792
0.186615
0.163261
0.136828
0.108156
0.0779103
0.0462962
0.0151895
42.433
42.4394
42.4552
42.4808
42.5157
42.5588
42.6079
42.6592
42.7081
42.7212
43.2845
41.8163
42.3552
0.580249
0.776181
0.225798
0.217453
0.204391
0.185369
0.162189
0.135941
0.107463
0.0774146
0.0459993
0.0150907
42.4282
42.4348
42.4508
42.4768
42.5123
42.5564
42.6072
42.6612
42.7139
42.7335
43.2653
41.8184
42.3549
0.578119
0.773758
0.22394
0.215671
0.202752
0.183909
0.160932
0.134903
0.106652
0.0768341
0.0456516
0.0149752
42.4231
42.4298
42.446
42.4722
42.5083
42.5534
42.6061
42.6632
42.7202
42.7474
43.2437
41.8223
42.3555
0.575615
0.770937
0.221822
0.213646
0.200892
0.182255
0.159508
0.133726
0.105732
0.0761766
0.0452578
0.0148444
42.4178
42.4245
42.4408
42.4672
42.5038
42.5501
42.6047
42.665
42.7269
42.7623
43.2206
41.8285
42.3576
0.572781
0.767773
0.219464
0.211402
0.198836
0.180425
0.157935
0.132427
0.104717
0.0754508
0.0448232
0.0147001
42.4122
42.4189
42.4352
42.4618
42.4989
42.5462
42.6029
42.6666
42.7336
42.778
43.1966
41.8376
42.3618
0.569665
0.764325
0.216894
0.208966
0.196607
0.178446
0.156234
0.131023
0.103621
0.074667
0.0443538
0.0145442
42.4064
42.4131
42.4294
42.4561
42.4935
42.5419
42.6006
42.6678
42.7402
42.7939
43.1729
41.8502
42.3686
0.566321
0.760651
0.214145
0.206369
0.194237
0.176344
0.154429
0.129534
0.102459
0.0738363
0.0438565
0.0143791
42.4005
42.4071
42.4234
42.4501
42.4879
42.5372
42.5979
42.6686
42.7464
42.8096
43.1502
41.8668
42.3787
0.562792
0.756813
0.211253
0.203648
0.191759
0.174149
0.152546
0.127982
0.101248
0.0729711
0.0433384
0.0142071
42.3946
42.4012
42.4172
42.4439
42.4819
42.5321
42.5947
42.6689
42.7522
42.8246
43.1298
41.888
42.3925
0.559135
0.752872
0.208261
0.200842
0.189208
0.171893
0.150613
0.12639
0.100006
0.0720844
0.0428076
0.0140307
42.3889
42.3952
42.4111
42.4376
42.4758
42.5268
42.5912
42.6687
42.7573
42.8386
43.1124
41.9138
42.4104
0.555407
0.748889
0.205215
0.197994
0.186624
0.169611
0.14866
0.124782
0.0987533
0.07119
0.0422722
0.0138528
42.3833
42.3895
42.4051
42.4314
42.4697
42.5213
42.5873
42.668
42.7618
42.8514
43.0989
41.9443
42.4326
0.551659
0.744926
0.202164
0.195149
0.184049
0.16734
0.146717
0.123184
0.0975089
0.070302
0.0417408
0.0136763
42.378
42.384
42.3993
42.4254
42.4636
42.5157
42.5833
42.667
42.7657
42.863
43.0897
41.9792
42.459
0.547954
0.741045
0.199158
0.192356
0.181524
0.165117
0.144818
0.121623
0.0962934
0.069435
0.041222
0.013504
42.3731
42.3789
42.3938
42.4196
42.4577
42.5102
42.5792
42.6657
42.769
42.8734
43.0848
42.0179
42.4893
0.544359
0.737302
0.196251
0.189662
0.179094
0.162979
0.142993
0.120125
0.0951272
0.0686033
0.0407246
0.0133389
42.3686
42.3742
42.3888
42.4141
42.4521
42.5049
42.5751
42.6642
42.7719
42.8828
43.0838
42.0595
42.5229
0.540922
0.733752
0.193496
0.187116
0.176802
0.160965
0.141276
0.118714
0.0940302
0.0678213
0.040257
0.0131837
42.3648
42.37
42.3842
42.4092
42.4469
42.4999
42.5712
42.6627
42.7744
42.8911
43.086
42.1028
42.5588
0.537689
0.730443
0.190946
0.184767
0.17469
0.159111
0.139695
0.117418
0.0930217
0.0671026
0.0398273
0.0130411
42.3616
42.3665
42.3802
42.4048
42.4422
42.4955
42.5676
42.6613
42.7766
42.8986
43.0905
42.1465
42.5956
0.534716
0.727415
0.188654
0.18266
0.172798
0.157451
0.138281
0.116257
0.0921197
0.0664599
0.0394431
0.0129137
42.3593
42.3638
42.3769
42.401
42.4382
42.4915
42.5645
42.66
42.7785
42.905
43.0962
42.1887
42.6318
0.53202
0.724703
0.186673
0.180838
0.171164
0.156017
0.137059
0.115255
0.0913406
0.0659049
0.0391113
0.0128036
42.3579
42.3617
42.3743
42.398
42.4349
42.4883
42.5619
42.6589
42.78
42.9104
43.1019
42.2278
42.6656
0.529588
0.722516
0.185054
0.179336
0.169822
0.154837
0.136052
0.114429
0.0906986
0.0654476
0.0388381
0.0127131
42.3576
42.3605
42.3724
42.3957
42.4324
42.4859
42.5599
42.658
42.7813
42.9147
43.107
42.262
42.6953
0.529025
0.719012
0.183625
0.178179
0.168798
0.153931
0.135278
0.113794
0.0902055
0.0650965
0.0386285
0.0126438
42.3586
42.36
42.3713
42.3942
42.4308
42.4842
42.5586
42.6576
42.7822
42.9179
43.1098
42.2879
42.719
0.529531
0.72043
0.183333
0.177653
0.168136
0.153318
0.134753
0.113363
0.0898706
0.064858
0.0384865
0.0125971
42.3618
42.3601
42.3708
42.3935
42.4301
42.4835
42.5581
42.6575
42.7829
42.9207
43.11
42.3024
42.7353
0.528094
0.715424
0.183117
0.17709
0.167732
0.152999
0.134484
0.113143
0.0896998
0.0647365
0.0384149
0.0125742
42.4462
42.4469
42.4606
42.4847
42.5177
42.5579
42.6024
42.6471
42.6872
42.6865
43.3196
41.8104
42.3471
0.578619
0.768801
0.234025
0.223853
0.209839
0.190025
0.16614
0.13924
0.110118
0.0794032
0.0472674
0.0155479
42.4415
42.4455
42.4597
42.484
42.5172
42.5575
42.6024
42.6476
42.6884
42.6882
43.3145
41.8071
42.3496
0.577424
0.772353
0.233495
0.223654
0.209567
0.189752
0.165904
0.139044
0.109966
0.0792938
0.0472008
0.0155249
42.4377
42.4431
42.4579
42.4825
42.5159
42.5567
42.6023
42.6484
42.6905
42.6925
43.3074
41.8066
42.3491
0.578445
0.769416
0.232235
0.222789
0.208921
0.189204
0.165434
0.138656
0.109663
0.0790772
0.0470707
0.0154812
42.4337
42.44
42.4554
42.4802
42.5141
42.5554
42.6019
42.6495
42.6936
42.6989
43.2965
41.8064
42.3482
0.58005
0.769444
0.231278
0.221778
0.207997
0.188392
0.164736
0.13808
0.109213
0.0787561
0.0468784
0.0154172
42.4296
42.4364
42.4521
42.4773
42.5115
42.5536
42.6012
42.6507
42.6974
42.7073
43.2819
41.8066
42.3469
0.578739
0.767842
0.229913
0.220461
0.206788
0.187321
0.163819
0.137324
0.108623
0.0783344
0.0466261
0.0153333
42.425
42.4321
42.4482
42.4737
42.5083
42.5512
42.6003
42.652
42.7019
42.7175
43.2638
41.8074
42.3457
0.576959
0.765744
0.228243
0.218855
0.205314
0.186011
0.162695
0.136396
0.107899
0.0778175
0.0463169
0.0152307
42.4202
42.4274
42.4437
42.4694
42.5046
42.5483
42.599
42.6533
42.707
42.7294
43.2426
41.8094
42.3449
0.57473
0.76317
0.226281
0.216975
0.203587
0.184477
0.161377
0.135309
0.107051
0.0772119
0.0459547
0.0151105
42.415
42.4223
42.4387
42.4646
42.5002
42.5448
42.5972
42.6543
42.7123
42.7425
43.2187
41.8132
42.345
0.572092
0.760178
0.224041
0.214838
0.201627
0.182736
0.159882
0.134076
0.106089
0.0765254
0.0455443
0.0149744
42.4095
42.4169
42.4332
42.4593
42.4953
42.5408
42.5949
42.6551
42.7177
42.7563
43.1927
41.8194
42.3464
0.569109
0.756825
0.221546
0.212467
0.199458
0.180811
0.158229
0.132714
0.105027
0.0757673
0.045091
0.0148242
42.4037
42.4111
42.4274
42.4535
42.4898
42.5362
42.5921
42.6553
42.7228
42.7704
43.1656
41.8285
42.3497
0.565819
0.753171
0.218823
0.209891
0.197106
0.178726
0.156441
0.131241
0.103879
0.074948
0.0446012
0.0146618
42.3978
42.4051
42.4213
42.4474
42.4839
42.5311
42.5886
42.655
42.7274
42.7841
43.1383
41.8413
42.3554
0.562299
0.749278
0.215909
0.207144
0.194602
0.176509
0.154542
0.129678
0.102662
0.0740792
0.0440817
0.0144896
42.3918
42.3989
42.415
42.441
42.4776
42.5255
42.5846
42.654
42.7313
42.7969
43.1117
41.8583
42.3641
0.558568
0.745209
0.212841
0.204262
0.191981
0.174193
0.152559
0.128047
0.101392
0.0731735
0.0435403
0.0143101
42.3858
42.3928
42.4086
42.4344
42.4711
42.5194
42.58
42.6522
42.7343
42.8083
43.0871
41.8799
42.3761
0.554708
0.741032
0.209665
0.201288
0.189282
0.171811
0.150522
0.126373
0.100089
0.0722446
0.042985
0.0141259
42.3798
42.3867
42.4022
42.4277
42.4643
42.5131
42.575
42.6498
42.7363
42.818
43.0655
41.9062
42.3919
0.550772
0.736813
0.206428
0.198267
0.186546
0.1694
0.148462
0.124681
0.0987727
0.0713068
0.0424245
0.01394
42.3741
42.3807
42.396
42.4211
42.4575
42.5065
42.5695
42.6469
42.7375
42.826
43.0477
41.9372
42.4116
0.546817
0.732615
0.203183
0.195247
0.183817
0.166997
0.146413
0.122999
0.0974649
0.0703751
0.0418677
0.0137553
42.3686
42.375
42.3899
42.4146
42.4507
42.4999
42.5639
42.6435
42.7379
42.8324
43.0343
41.9726
42.4353
0.542904
0.728504
0.199984
0.19228
0.181139
0.164644
0.144406
0.121354
0.0961864
0.0694646
0.0413238
0.013575
42.3635
42.3697
42.3841
42.4084
42.4441
42.4934
42.5581
42.6398
42.7378
42.8375
43.0252
42.0118
42.4628
0.539117
0.724541
0.196888
0.189415
0.17856
0.16238
0.142478
0.119773
0.0949589
0.0685907
0.0408018
0.0134019
42.359
42.3649
42.3788
42.4025
42.4379
42.4871
42.5525
42.636
42.7374
42.8416
43.02
42.0538
42.4937
0.535475
0.720784
0.19395
0.186706
0.176125
0.160245
0.140662
0.118285
0.0938036
0.0677685
0.0403108
0.0132392
42.355
42.3606
42.374
42.3972
42.4321
42.4812
42.5472
42.6323
42.7367
42.8451
43.0181
42.0978
42.527
0.53207
0.717286
0.191228
0.184204
0.17388
0.158279
0.13899
0.116916
0.0927409
0.0670123
0.0398592
0.0130895
42.3518
42.3569
42.3698
42.3925
42.4269
42.4758
42.5422
42.6289
42.736
42.8481
43.0183
42.1423
42.5613
0.528934
0.71409
0.18878
0.181959
0.171868
0.156517
0.137492
0.11569
0.09179
0.0663359
0.0394553
0.0129557
42.3493
42.354
42.3663
42.3884
42.4224
42.4711
42.5379
42.6258
42.7353
42.8506
43.0199
42.1854
42.595
0.526083
0.711233
0.186659
0.180016
0.170129
0.154994
0.136198
0.114631
0.0909682
0.0657514
0.0391064
0.0128401
42.3478
42.3519
42.3636
42.3851
42.4187
42.4673
42.5343
42.6232
42.7347
42.8528
43.0219
42.226
42.6266
0.52354
0.708897
0.184923
0.178414
0.168699
0.153741
0.13513
0.113757
0.0902908
0.0652697
0.0388189
0.0127449
42.3475
42.3505
42.3615
42.3827
42.4159
42.4643
42.5315
42.6212
42.7342
42.8546
43.0238
42.2616
42.6544
0.522847
0.70535
0.183421
0.177177
0.167606
0.152778
0.13431
0.113086
0.0897704
0.0648998
0.0385983
0.0126721
42.3485
42.35
42.3603
42.3811
42.4141
42.4624
42.5297
42.6199
42.734
42.8561
43.0241
42.2881
42.6768
0.523325
0.706643
0.183061
0.176594
0.166898
0.152125
0.133753
0.11263
0.0894168
0.0646485
0.0384489
0.012623
42.3516
42.3501
42.3598
42.3803
42.4133
42.4615
42.5289
42.6194
42.7341
42.8579
43.0237
42.3024
42.6922
0.521897
0.701653
0.182803
0.176007
0.166472
0.151787
0.133468
0.112398
0.0892367
0.0645206
0.0383736
0.012599
42.437
42.4382
42.452
42.4761
42.509
42.5492
42.5941
42.6395
42.6809
42.6826
43.2978
41.7994
42.3351
0.574478
0.755488
0.237685
0.226063
0.211359
0.191134
0.167032
0.140025
0.110838
0.0800389
0.0477496
0.015754
42.4323
42.4367
42.4511
42.4753
42.5084
42.5488
42.594
42.6399
42.6819
42.6842
43.2924
41.796
42.3377
0.57325
0.758976
0.237147
0.225835
0.211065
0.190843
0.166781
0.139818
0.110676
0.0799236
0.0476797
0.0157299
42.4284
42.4343
42.4492
42.4737
42.5071
42.5478
42.5936
42.6405
42.6838
42.6884
43.2847
41.7954
42.3371
0.574321
0.756032
0.235852
0.224938
0.210379
0.19026
0.166282
0.139407
0.110356
0.0796954
0.0475429
0.0156842
42.4244
42.4311
42.4466
42.4713
42.505
42.5462
42.5929
42.6411
42.6865
42.6946
43.2726
41.795
42.3359
0.575756
0.755863
0.23481
0.223857
0.209395
0.189397
0.165542
0.138798
0.109882
0.0793569
0.0473406
0.015617
42.4202
42.4273
42.4431
42.4682
42.5021
42.544
42.5917
42.6418
42.6897
42.7027
43.2564
41.7951
42.3343
0.574336
0.754129
0.233349
0.222446
0.208105
0.188256
0.164568
0.137996
0.109258
0.0789123
0.0470751
0.0155289
42.4155
42.423
42.439
42.4643
42.4986
42.5411
42.5901
42.6423
42.6935
42.7124
43.2362
41.7956
42.3326
0.57241
0.751857
0.231563
0.220729
0.206531
0.186861
0.163373
0.137013
0.108493
0.078367
0.0467496
0.0154211
42.4105
42.4181
42.4343
42.4597
42.4944
42.5376
42.588
42.6426
42.6974
42.7234
43.2123
41.7975
42.3311
0.570009
0.749078
0.229458
0.218716
0.204686
0.185226
0.161972
0.13586
0.107595
0.0777277
0.0463681
0.0152949
42.4052
42.4128
42.4291
42.4546
42.4895
42.5334
42.5852
42.6424
42.7013
42.7353
43.1852
41.8011
42.3304
0.567182
0.745853
0.227052
0.216425
0.20259
0.183368
0.160381
0.134552
0.106578
0.0770026
0.0459354
0.0151517
42.3995
42.4071
42.4234
42.4489
42.4839
42.5285
42.5818
42.6416
42.7049
42.7474
43.1555
41.8072
42.3307
0.563993
0.742242
0.224368
0.213882
0.200267
0.181312
0.158621
0.133106
0.105452
0.0762011
0.0454571
0.0149935
42.3936
42.4011
42.4173
42.4426
42.4778
42.523
42.5776
42.64
42.7077
42.759
43.124
41.8165
42.3325
0.560483
0.738307
0.221437
0.211116
0.197746
0.179084
0.156715
0.13154
0.104235
0.0753342
0.0449398
0.0148224
42.3875
42.3949
42.4108
42.436
42.4712
42.5168
42.5726
42.6375
42.7095
42.7693
43.0917
41.8295
42.3363
0.556695
0.734116
0.218297
0.208162
0.19506
0.176712
0.154689
0.129876
0.102942
0.0744139
0.0443908
0.0146407
42.3813
42.3885
42.4042
42.4291
42.4642
42.51
42.5668
42.634
42.71
42.7777
43.0596
41.8469
42.3424
0.552696
0.729735
0.214989
0.205062
0.192247
0.174232
0.152571
0.128139
0.101593
0.0734537
0.0438179
0.0144512
42.375
42.3821
42.3974
42.422
42.4568
42.5027
42.5603
42.6296
42.7091
42.7837
43.0291
41.869
42.3511
0.548556
0.725238
0.21156
0.201858
0.189346
0.171678
0.150394
0.126354
0.100207
0.0724679
0.0432297
0.0142565
42.3689
42.3758
42.3907
42.4148
42.4491
42.495
42.5533
42.6242
42.7069
42.787
43.0013
41.8956
42.3627
0.544335
0.720694
0.208063
0.198601
0.186402
0.16909
0.148189
0.124549
0.0988063
0.0714717
0.0426354
0.0140598
42.363
42.3696
42.384
42.4076
42.4414
42.487
42.5457
42.6181
42.7035
42.7879
42.9772
41.9268
42.3775
0.540088
0.716175
0.204552
0.195341
0.183462
0.16651
0.145994
0.122751
0.0974126
0.070481
0.0420445
0.0138642
42.3573
42.3636
42.3776
42.4005
42.4338
42.479
42.5379
42.6115
42.6991
42.7869
42.9573
41.962
42.3955
0.535903
0.71175
0.201088
0.192135
0.180575
0.163979
0.143843
0.120992
0.0960489
0.0695119
0.0414665
0.0136729
42.3521
42.3581
42.3715
42.3937
42.4263
42.4711
42.5301
42.6046
42.6943
42.7846
42.9416
42.0007
42.417
0.53182
0.707486
0.197731
0.189037
0.177792
0.161543
0.141774
0.119301
0.0947385
0.0685809
0.0409114
0.0134892
42.3473
42.353
42.3658
42.3874
42.4193
42.4635
42.5224
42.5977
42.6892
42.7817
42.9299
42.042
42.4418
0.527924
0.703448
0.194543
0.186104
0.175162
0.159244
0.139823
0.117707
0.0935041
0.0677041
0.0403886
0.0133162
42.3432
42.3485
42.3607
42.3816
42.4127
42.4564
42.5151
42.591
42.6843
42.7787
42.9214
42.0848
42.4693
0.524268
0.699691
0.191585
0.183393
0.172735
0.157124
0.138025
0.116239
0.0923679
0.0668972
0.0399075
0.013157
42.3398
42.3447
42.3563
42.3764
42.4068
42.4499
42.5084
42.5849
42.6796
42.7759
42.9152
42.1282
42.4975
0.520902
0.696265
0.188921
0.180957
0.170558
0.155223
0.136414
0.114925
0.0913504
0.0661749
0.0394769
0.0130145
42.3372
42.3416
42.3525
42.372
42.4017
42.4442
42.5024
42.5794
42.6755
42.7736
42.9104
42.1697
42.5248
0.517852
0.693209
0.18661
0.178847
0.168675
0.153579
0.135021
0.113788
0.0904706
0.0655504
0.0391046
0.0128914
42.3356
42.3393
42.3496
42.3684
42.3975
42.4395
42.4975
42.5748
42.6719
42.7718
42.9066
42.2081
42.5501
0.51514
0.690685
0.184712
0.177109
0.167125
0.152225
0.133872
0.11285
0.089745
0.0650356
0.0387979
0.01279
42.3352
42.3379
42.3474
42.3656
42.3943
42.4359
42.4937
42.5712
42.6691
42.7705
42.9032
42.2415
42.5724
0.514253
0.687059
0.183094
0.175765
0.16594
0.151184
0.132988
0.112129
0.0891874
0.0646401
0.0385624
0.0127124
42.3361
42.3373
42.3461
42.3639
42.3922
42.4335
42.4912
42.5688
42.6672
42.7696
42.8992
42.2676
42.5905
0.514658
0.688207
0.182649
0.175102
0.165167
0.150478
0.132387
0.111638
0.0888085
0.0643715
0.0384029
0.0126601
42.3392
42.3373
42.3455
42.3631
42.3912
42.4324
42.49
42.5677
42.6665
42.77
42.8952
42.281
42.6031
0.513337
0.683219
0.182331
0.174479
0.164709
0.150113
0.13208
0.111389
0.0886156
0.0642347
0.0383225
0.0126346
42.4264
42.4277
42.4415
42.4655
42.4983
42.5385
42.5837
42.63
42.6728
42.6776
43.2707
41.7859
42.3202
0.569338
0.738915
0.242148
0.228736
0.21317
0.192456
0.168105
0.140983
0.111726
0.0808289
0.0483517
0.0160122
42.4216
42.4261
42.4406
42.4647
42.4976
42.538
42.5835
42.6303
42.6737
42.6792
43.2651
41.7823
42.3228
0.568079
0.742328
0.241599
0.228473
0.212849
0.192142
0.167836
0.140762
0.111554
0.0807063
0.0482775
0.0159868
42.4177
42.4236
42.4386
42.4629
42.496
42.5367
42.5828
42.6305
42.6753
42.6832
43.2565
41.7815
42.322
0.569232
0.739356
0.240258
0.227533
0.212112
0.191515
0.167301
0.140322
0.111212
0.0804635
0.0481324
0.0159384
42.4136
42.4204
42.4358
42.4603
42.4937
42.5348
42.5816
42.6306
42.6774
42.689
43.243
41.781
42.3204
0.570415
0.738948
0.239109
0.226361
0.211052
0.190586
0.166506
0.13967
0.110706
0.0801034
0.0479177
0.0158673
42.4092
42.4165
42.4322
42.4569
42.4905
42.5321
42.5798
42.6305
42.6799
42.6966
43.2248
41.7808
42.3183
0.568862
0.737044
0.237525
0.224833
0.209659
0.189357
0.16546
0.138813
0.11004
0.07963
0.0476358
0.0157741
42.4044
42.412
42.4279
42.4527
42.4865
42.5286
42.5774
42.63
42.6826
42.7055
43.202
41.7811
42.316
0.566771
0.734551
0.235585
0.222972
0.207957
0.187854
0.164177
0.13776
0.109222
0.079049
0.0472899
0.0156598
42.3993
42.4069
42.4229
42.4478
42.4817
42.5243
42.5742
42.629
42.6851
42.7153
43.1749
41.7826
42.3137
0.564169
0.731509
0.233296
0.220788
0.20596
0.186089
0.16267
0.136524
0.108263
0.0783673
0.046884
0.0155258
42.3937
42.4014
42.4174
42.4422
42.4762
42.5192
42.5703
42.6272
42.6871
42.7254
43.1438
41.7861
42.3117
0.561107
0.727983
0.230675
0.2183
0.20369
0.184084
0.160957
0.13512
0.107174
0.0775935
0.0464233
0.0153738
42.3879
42.3955
42.4113
42.436
42.47
42.5133
42.5653
42.6245
42.6883
42.7349
43.1093
41.7922
42.3104
0.557638
0.724038
0.227749
0.215535
0.201171
0.181861
0.159061
0.133566
0.105969
0.0767373
0.0459136
0.0152056
42.3818
42.3892
42.4049
42.4293
42.4631
42.5065
42.5594
42.6206
42.688
42.7428
43.0722
41.8016
42.31
0.553814
0.719742
0.22455
0.212524
0.198434
0.179449
0.157004
0.131882
0.104664
0.0758103
0.0453618
0.0150236
42.3754
42.3827
42.398
42.4221
42.4556
42.499
42.5525
42.6153
42.6861
42.7482
43.0335
41.8149
42.3106
0.549707
0.715167
0.221117
0.209305
0.195514
0.176879
0.154816
0.130092
0.103277
0.0748251
0.0447753
0.01483
42.369
42.3761
42.391
42.4146
42.4476
42.4908
42.5446
42.6087
42.6821
42.7503
42.9942
41.8327
42.3123
0.545356
0.710385
0.217497
0.205922
0.192452