/*--------------------------------*- C++ -*----------------------------------*\
| =========                 |                                                 |
| \\      /  F ield         | OpenFOAM: The Open Source CFD Toolbox           |
|  \\    /   O peration     | Version:  2306                                  |
|   \\  /    A nd           | Website:  www.openfoam.com                      |
|    \\/     M anipulation  |                                                 |
\*---------------------------------------------------------------------------*/
FoamFile
{
    version     2.0;
    format      ascii;
    arch        "LSB;label=32;scalar=64";
    class       volScalarField;
    location    "4.4";
    object      p;
}
// * * * * * * * * * * * * * * * * * * * * * * * * * * * * * * * * * * * * * //

dimensions      [0 2 -2 0 0 0 0];

internalField   nonuniform List<scalar> 
288632
(
66.5653
66.557
66.5694
66.5945
66.6289
66.6698
66.7236
66.7651
66.8344
66.8601
66.9368
66.9536
66.9848
-2.39819
-2.26842
-2.26288
-1.98159
-1.86928
-1.60987
-1.39086
-1.14858
-0.897836
-0.643108
-0.386527
-0.12903
66.5584
66.5556
66.5689
66.5941
66.6287
66.6697
66.7236
66.7654
66.8348
66.8611
66.9372
66.9537
66.9856
-2.3989
-2.26927
-2.26433
-1.98274
-1.87043
-1.61095
-1.39175
-1.14933
-0.898431
-0.643538
-0.386787
-0.129117
66.5564
66.5543
66.568
66.5932
66.628
66.6692
66.7233
66.7657
66.8353
66.8628
66.9387
66.9554
66.988
-2.40131
-2.27217
-2.26727
-1.98531
-1.87289
-1.61309
-1.39362
-1.15088
-0.899655
-0.64442
-0.38732
-0.129296
66.5529
66.5522
66.5665
66.5919
66.6269
66.6684
66.7228
66.7659
66.836
66.8651
66.9406
66.9583
66.9912
-2.40532
-2.27634
-2.27163
-1.98914
-1.87656
-1.61628
-1.3964
-1.1532
-0.901485
-0.64574
-0.388117
-0.129564
66.5501
66.55
66.5646
66.5903
66.6255
66.6674
66.722
66.7661
66.8368
66.8679
66.9432
66.9622
66.9955
-2.41085
-2.28199
-2.27736
-1.99421
-1.8814
-1.62046
-1.40006
-1.15626
-0.903896
-0.64748
-0.389168
-0.129917
66.5474
66.5476
66.5624
66.5883
66.6237
66.666
66.721
66.7663
66.8377
66.8713
66.9466
66.9671
67.0008
-2.41778
-2.28889
-2.28434
-2.00041
-1.88732
-1.62559
-1.40456
-1.16001
-0.906855
-0.649616
-0.390459
-0.13035
66.5445
66.545
66.56
66.5861
66.6217
66.6645
66.7198
66.7665
66.8389
66.8752
66.9508
66.973
67.0072
-2.42596
-2.29699
-2.29247
-2.00768
-1.89425
-1.63157
-1.40981
-1.16441
-0.910322
-0.652119
-0.391973
-0.130858
66.5417
66.5423
66.5574
66.5836
66.6194
66.6627
66.7185
66.7667
66.8403
66.8797
66.9558
66.98
67.0148
-2.43527
-2.30611
-2.30161
-2.01587
-1.90206
-1.63834
-1.41576
-1.16937
-0.914245
-0.654953
-0.393687
-0.131434
66.5388
66.5395
66.5547
66.5809
66.617
66.6607
66.7171
66.767
66.8419
66.8848
66.9617
66.9882
67.0237
-2.44553
-2.31612
-2.31162
-2.02486
-1.91063
-1.64578
-1.4223
-1.17485
-0.918569
-0.658078
-0.395578
-0.132069
66.5359
66.5366
66.5518
66.5781
66.6144
66.6586
66.7156
66.7672
66.8437
66.8904
66.9687
66.9976
67.0341
-2.45656
-2.32684
-2.32232
-2.03451
-1.91984
-1.65377
-1.42934
-1.18074
-0.92323
-0.661448
-0.397619
-0.132754
66.5331
66.5338
66.5489
66.5752
66.6116
66.6564
66.714
66.7676
66.8459
66.8966
66.9768
67.0084
67.0459
-2.46816
-2.33808
-2.33355
-2.04465
-1.92952
-1.6622
-1.43677
-1.18697
-0.928157
-0.665014
-0.399778
-0.13348
66.5302
66.5309
66.5459
66.5723
66.6088
66.6541
66.7125
66.7681
66.8483
66.9034
66.9859
67.0206
67.0595
-2.48016
-2.34967
-2.34512
-2.05513
-1.93954
-1.67093
-1.44447
-1.19343
-0.933276
-0.668719
-0.402023
-0.134235
66.5275
66.5281
66.543
66.5693
66.606
66.6518
66.711
66.7687
66.8511
66.9109
66.9963
67.0342
67.0748
-2.49233
-2.3614
-2.35684
-2.06578
-1.94973
-1.67982
-1.45233
-1.20003
-0.938507
-0.672509
-0.40432
-0.135008
66.5249
66.5253
66.5402
66.5664
66.6032
66.6495
66.7095
66.7694
66.8542
66.919
67.0079
67.0494
67.0918
-2.5045
-2.37309
-2.36853
-2.07642
-1.95993
-1.68874
-1.46021
-1.20666
-0.943766
-0.676321
-0.406632
-0.135786
66.5224
66.5228
66.5375
66.5636
66.6005
66.6473
66.7082
66.7703
66.8576
66.9276
67.0207
67.0659
67.1106
-2.51646
-2.38456
-2.37999
-2.08688
-1.96996
-1.69753
-1.468
-1.21321
-0.94897
-0.680096
-0.408922
-0.136557
66.5202
66.5204
66.5349
66.561
66.598
66.6452
66.707
66.7714
66.8613
66.9367
67.0344
67.0836
67.1309
-2.52802
-2.39562
-2.39104
-2.097
-1.97968
-1.70606
-1.47556
-1.21958
-0.954034
-0.683771
-0.411152
-0.137309
66.5182
66.5183
66.5326
66.5585
66.5956
66.6432
66.7059
66.7726
66.8652
66.946
67.0489
67.1022
67.1524
-2.53901
-2.40611
-2.40152
-2.10662
-1.98893
-1.71418
-1.48278
-1.22567
-0.958874
-0.687285
-0.413287
-0.138028
66.5165
66.5164
66.5305
66.5563
66.5934
66.6414
66.705
66.774
66.8693
66.9554
67.0638
67.1214
67.1748
-2.54926
-2.41585
-2.41126
-2.11559
-1.99756
-1.72177
-1.48953
-1.23137
-0.963409
-0.690581
-0.415289
-0.138703
66.5152
66.5149
66.5287
66.5543
66.5914
66.6398
66.7043
66.7754
66.8733
66.9646
67.0785
67.1405
67.1973
-2.55863
-2.42474
-2.42011
-2.12377
-2.00543
-1.72871
-1.4957
-1.23658
-0.967563
-0.693601
-0.417124
-0.139322
66.5144
66.5136
66.5271
66.5526
66.5897
66.6385
66.7037
66.7768
66.8771
66.9732
67.0927
67.1589
67.2192
-2.56698
-2.4326
-2.42793
-2.13102
-2.01241
-1.73488
-1.50119
-1.24123
-0.971267
-0.696295
-0.418762
-0.139875
66.5141
66.5128
66.5259
66.5512
66.5883
66.6373
66.7033
66.7782
66.8807
66.9811
67.1057
67.176
67.2396
-2.5742
-2.43938
-2.43463
-2.13727
-2.01841
-1.74018
-1.50592
-1.24523
-0.974456
-0.698616
-0.420173
-0.140351
66.514
66.5123
66.525
66.5501
66.5871
66.6364
66.703
66.7794
66.8837
66.9878
67.1169
67.1909
67.2577
-2.5802
-2.44493
-2.44009
-2.14237
-2.02332
-1.74452
-1.5098
-1.24851
-0.977077
-0.700524
-0.421333
-0.140742
66.5166
66.5123
66.5243
66.5493
66.5863
66.6358
66.7027
66.7803
66.8862
66.9931
67.1257
67.2031
67.2726
-2.5849
-2.44929
-2.44425
-2.14631
-2.02709
-1.74784
-1.51277
-1.25103
-0.979084
-0.701985
-0.422222
-0.141042
66.5156
66.5119
66.5238
66.5488
66.5857
66.6353
66.7026
66.781
66.8879
66.9967
67.1317
67.2119
67.2834
-2.58824
-2.45212
-2.44704
-2.14896
-2.02964
-1.75006
-1.51478
-1.25273
-0.980443
-0.702974
-0.422823
-0.141244
66.5221
66.5127
66.5238
66.5486
66.5856
66.6352
66.7026
66.7814
66.8888
66.9988
67.135
67.2161
67.2898
-2.59011
-2.45407
-2.44844
-2.1504
-2.03098
-1.75117
-1.51582
-1.2536
-0.981133
-0.703476
-0.423127
-0.141346
66.5566
66.5536
66.5669
66.592
66.6264
66.6673
66.721
66.7625
66.8317
66.8577
66.9337
66.951
66.9833
-2.40539
-2.27646
-2.27059
-1.98764
-1.87394
-1.61357
-1.39321
-1.15
-0.898623
-0.643471
-0.386652
-0.129041
66.5498
66.552
66.5664
66.5916
66.6262
66.6671
66.721
66.7629
66.8321
66.8594
66.9323
66.9512
66.9845
-2.40606
-2.27735
-2.27208
-1.98881
-1.87512
-1.61466
-1.39412
-1.15077
-0.89923
-0.643909
-0.386917
-0.129131
66.5479
66.5507
66.5655
66.5907
66.6254
66.6666
66.7207
66.7631
66.8325
66.8612
66.9335
66.9528
66.9869
-2.4085
-2.2803
-2.27508
-1.99143
-1.87762
-1.61685
-1.39602
-1.15234
-0.900472
-0.644804
-0.387458
-0.129312
66.5445
66.5485
66.564
66.5894
66.6243
66.6658
66.7201
66.7633
66.8331
66.8635
66.935
66.9557
66.9903
-2.41257
-2.28454
-2.27952
-1.99533
-1.88135
-1.62008
-1.39884
-1.1547
-0.90233
-0.646144
-0.388267
-0.129584
66.5419
66.5463
66.5621
66.5877
66.6229
66.6647
66.7193
66.7634
66.8338
66.8663
66.9374
66.9595
66.9945
-2.41819
-2.2903
-2.28536
-2.00049
-1.88628
-1.62434
-1.40257
-1.15781
-0.904779
-0.647911
-0.389334
-0.129942
66.5391
66.5439
66.5599
66.5857
66.6211
66.6633
66.7182
66.7635
66.8346
66.8695
66.9407
66.9644
66.9998
-2.42521
-2.29733
-2.29247
-2.0068
-1.8923
-1.62955
-1.40713
-1.16162
-0.907785
-0.65008
-0.390646
-0.130382
66.5361
66.5415
66.5574
66.5834
66.619
66.6617
66.7169
66.7636
66.8357
66.8733
66.9446
66.9702
67.0061
-2.43352
-2.30558
-2.30075
-2.01419
-1.89935
-1.63564
-1.41248
-1.16609
-0.911307
-0.652623
-0.392183
-0.130898
66.5332
66.5388
66.5548
66.5809
66.6167
66.6598
66.7155
66.7636
66.8368
66.8775
66.9494
66.9771
67.0137
-2.44295
-2.31486
-2.31006
-2.02253
-1.9073
-1.64252
-1.41852
-1.17114
-0.915294
-0.655503
-0.393925
-0.131483
66.5304
66.536
66.552
66.5782
66.6142
66.6578
66.7139
66.7637
66.8382
66.8822
66.9551
66.9851
67.0225
-2.45335
-2.32505
-2.32026
-2.03168
-1.91602
-1.65009
-1.42517
-1.1767
-0.91969
-0.65868
-0.395848
-0.132129
66.5275
66.5331
66.5491
66.5753
66.6115
66.6555
66.7123
66.7637
66.8398
66.8874
66.9617
66.9943
67.0326
-2.46453
-2.33595
-2.33116
-2.0415
-1.92539
-1.65823
-1.43233
-1.1827
-0.924431
-0.662107
-0.397923
-0.132826
66.5246
66.5302
66.5462
66.5724
66.6087
66.6532
66.7105
66.7638
66.8416
66.8931
66.9693
67.0048
67.0443
-2.47629
-2.34739
-2.34259
-2.05183
-1.93526
-1.6668
-1.43989
-1.18903
-0.929444
-0.665734
-0.400119
-0.133565
66.5217
66.5273
66.5432
66.5694
66.6058
66.6508
66.7088
66.764
66.8437
66.8994
66.9779
67.0166
67.0575
-2.48844
-2.35917
-2.35437
-2.06249
-1.94546
-1.67569
-1.44773
-1.19561
-0.934653
-0.669505
-0.402404
-0.134333
66.519
66.5244
66.5402
66.5664
66.6029
66.6483
66.7071
66.7642
66.8461
66.9063
66.9876
67.0298
67.0725
-2.50077
-2.3711
-2.36631
-2.07333
-1.95583
-1.68475
-1.45573
-1.20233
-0.939978
-0.673363
-0.404742
-0.13512
66.5163
66.5217
66.5373
66.5634
66.6
66.6459
66.7054
66.7646
66.8488
66.9137
66.9984
67.0445
67.0892
-2.51309
-2.38299
-2.3782
-2.08415
-1.96621
-1.69382
-1.46376
-1.20908
-0.945335
-0.677245
-0.407097
-0.135913
66.5139
66.5191
66.5346
66.5606
66.5972
66.6435
66.7038
66.7652
66.8518
66.9215
67.0103
67.0605
67.1076
-2.52519
-2.39464
-2.38986
-2.0948
-1.97644
-1.70278
-1.47169
-1.21576
-0.950636
-0.68109
-0.40943
-0.136699
66.5116
66.5167
66.532
66.5579
66.5945
66.6412
66.7023
66.7658
66.855
66.9298
67.0231
67.0777
67.1275
-2.53689
-2.40587
-2.40111
-2.1051
-1.98633
-1.71146
-1.4794
-1.22225
-0.955796
-0.684835
-0.411703
-0.137465
66.5096
66.5146
66.5296
66.5554
66.592
66.6391
66.701
66.7667
66.8584
66.9382
67.0366
67.0958
67.1487
-2.548
-2.41652
-2.41177
-2.11489
-1.99575
-1.71974
-1.48675
-1.22845
-0.960729
-0.688418
-0.413879
-0.138198
66.5079
66.5127
66.5275
66.5531
66.5897
66.6371
66.6999
66.7676
66.862
66.9467
67.0504
67.1145
67.1707
-2.55837
-2.42641
-2.42167
-2.12401
-2.00454
-1.72748
-1.49363
-1.23426
-0.965352
-0.691778
-0.415921
-0.138887
66.5066
66.5111
66.5257
66.551
66.5877
66.6354
66.6989
66.7687
66.8655
66.955
67.0642
67.1331
67.1928
-2.56784
-2.43542
-2.43067
-2.13232
-2.01255
-1.73454
-1.49992
-1.23958
-0.969588
-0.694858
-0.417793
-0.139518
66.5058
66.5099
66.5241
66.5493
66.5859
66.6339
66.6981
66.7697
66.8689
66.9629
67.0775
67.151
67.2144
-2.57628
-2.44339
-2.43862
-2.1397
-2.01966
-1.74082
-1.50552
-1.24431
-0.973365
-0.697606
-0.419464
-0.140082
66.5055
66.5091
66.5229
66.5478
66.5844
66.6326
66.6975
66.7708
66.8721
66.97
67.0896
67.1677
67.2346
-2.58357
-2.45027
-2.44542
-2.14605
-2.02577
-1.74622
-1.51033
-1.24839
-0.976618
-0.699973
-0.420904
-0.140568
66.5054
66.5085
66.5219
66.5467
66.5832
66.6316
66.697
66.7717
66.8748
66.9761
67.1001
67.1823
67.2524
-2.58963
-2.45589
-2.45096
-2.15124
-2.03077
-1.75065
-1.51429
-1.25174
-0.979292
-0.701919
-0.422088
-0.140968
66.5078
66.5086
66.5213
66.5459
66.5823
66.6309
66.6967
66.7724
66.8769
66.9808
67.1083
67.1941
67.2671
-2.59437
-2.4603
-2.45519
-2.15524
-2.03461
-1.75402
-1.51732
-1.25431
-0.981339
-0.70341
-0.422995
-0.141274
66.507
66.5082
66.5207
66.5453
66.5817
66.6304
66.6964
66.7729
66.8784
66.9842
67.1137
67.2025
67.2777
-2.59773
-2.46316
-2.45802
-2.15793
-2.0372
-1.75629
-1.51937
-1.25604
-0.982725
-0.704419
-0.423608
-0.14148
66.5133
66.509
66.5206
66.5452
66.5815
66.6302
66.6964
66.7733
66.8793
66.9862
67.117
67.2051
67.2837
-2.59962
-2.46513
-2.45943
-2.15938
-2.03856
-1.75741
-1.52042
-1.25693
-0.983428
-0.70493
-0.423918
-0.141584
66.5508
66.5484
66.5619
66.5868
66.6212
66.6619
66.7154
66.757
66.8259
66.8527
66.928
66.9462
66.9796
-2.4219
-2.29342
-2.28573
-1.99957
-1.88296
-1.62048
-1.39754
-1.15252
-0.899913
-0.643976
-0.386748
-0.128999
66.5442
66.5467
66.5614
66.5864
66.6209
66.6617
66.7154
66.7573
66.8262
66.8544
66.9263
66.9463
66.9809
-2.4226
-2.29435
-2.28728
-2.00079
-1.88418
-1.62161
-1.39849
-1.15331
-0.900538
-0.644427
-0.387019
-0.129091
66.5422
66.5454
66.5604
66.5856
66.6202
66.6612
66.715
66.7574
66.8266
66.8561
66.9275
66.9478
66.9833
-2.42513
-2.29742
-2.29039
-2.00351
-1.88676
-1.62386
-1.40044
-1.15493
-0.901818
-0.645349
-0.387576
-0.129277
66.5387
66.5433
66.5589
66.5842
66.619
66.6603
66.7143
66.7575
66.827
66.8583
66.929
66.9506
66.9866
-2.42935
-2.30182
-2.295
-2.00754
-1.89062
-1.62721
-1.40336
-1.15737
-0.903732
-0.646729
-0.388409
-0.129557
66.5358
66.5411
66.557
66.5825
66.6175
66.6591
66.7133
66.7575
66.8276
66.8608
66.9313
66.9542
66.9907
-2.43516
-2.3078
-2.30106
-2.01288
-1.89572
-1.63161
-1.4072
-1.16057
-0.906256
-0.648549
-0.389509
-0.129926
66.5329
66.5387
66.5548
66.5805
66.6156
66.6576
66.7121
66.7573
66.8282
66.8638
66.9341
66.9587
66.9957
-2.44241
-2.31509
-2.30843
-2.01942
-1.90196
-1.63699
-1.41192
-1.1645
-0.909356
-0.650786
-0.390861
-0.13038
66.53
66.5361
66.5523
66.5781
66.6135
66.6558
66.7107
66.7571
66.8289
66.8671
66.9376
66.9643
67.0018
-2.45099
-2.32365
-2.31703
-2.02707
-1.90925
-1.64329
-1.41744
-1.16911
-0.912991
-0.653409
-0.392447
-0.130912
66.5271
66.5334
66.5496
66.5755
66.611
66.6538
66.709
66.7569
66.8297
66.8709
66.9418
66.9706
67.0089
-2.46074
-2.33327
-2.32669
-2.0357
-1.91748
-1.65041
-1.42368
-1.17433
-0.917108
-0.656382
-0.394245
-0.131516
66.5242
66.5305
66.5468
66.5727
66.6084
66.6515
66.7072
66.7565
66.8306
66.8749
66.9468
66.978
67.0171
-2.47147
-2.34382
-2.33726
-2.04518
-1.92652
-1.65824
-1.43056
-1.18008
-0.92165
-0.659663
-0.396231
-0.132183
66.5213
66.5276
66.5438
66.5698
66.6055
66.6491
66.7052
66.7561
66.8316
66.8794
66.9524
66.9863
67.0265
-2.483
-2.35512
-2.34857
-2.05535
-1.93622
-1.66666
-1.43797
-1.18628
-0.926551
-0.663206
-0.398376
-0.132904
66.5183
66.5247
66.5408
66.5667
66.6025
66.6465
66.7031
66.7557
66.8328
66.8842
66.9588
66.9957
67.0372
-2.49513
-2.36696
-2.36043
-2.06604
-1.94644
-1.67555
-1.44579
-1.19284
-0.931738
-0.666958
-0.400648
-0.133669
66.5155
66.5217
66.5377
66.5636
66.5995
66.6438
66.701
66.7552
66.8342
66.8894
66.9661
67.0061
67.0492
-2.50765
-2.37915
-2.37264
-2.07708
-1.95702
-1.68476
-1.45391
-1.19965
-0.937132
-0.670862
-0.403014
-0.134464
66.5127
66.5188
66.5347
66.5605
66.5964
66.6411
66.6988
66.7548
66.8357
66.8949
66.9743
67.0177
67.0628
-2.52034
-2.39149
-2.38501
-2.0883
-1.96777
-1.69414
-1.4622
-1.20662
-0.942649
-0.674859
-0.405437
-0.13528
66.51
66.516
66.5318
66.5574
66.5933
66.6383
66.6966
66.7544
66.8375
66.9009
66.9833
67.0305
67.0778
-2.53301
-2.40378
-2.39733
-2.09951
-1.97853
-1.70355
-1.47053
-1.21362
-0.948203
-0.678884
-0.407878
-0.136102
66.5075
66.5134
66.5289
66.5544
66.5903
66.6356
66.6946
66.7541
66.8394
66.9071
66.9933
67.0443
67.0944
-2.54545
-2.41581
-2.40941
-2.11053
-1.98914
-1.71284
-1.47875
-1.22054
-0.953702
-0.682873
-0.410299
-0.136918
66.5052
66.511
66.5263
66.5516
66.5874
66.633
66.6926
66.754
66.8416
66.9137
67.004
67.0592
67.1123
-2.55747
-2.42741
-2.42105
-2.12119
-1.9994
-1.72185
-1.48675
-1.22728
-0.959059
-0.68676
-0.412659
-0.137713
66.5031
66.5088
66.5238
66.5489
66.5847
66.6305
66.6908
66.754
66.8439
66.9204
67.0153
67.0749
67.1313
-2.56887
-2.43839
-2.43207
-2.13132
-2.00917
-1.73044
-1.49438
-1.23372
-0.964182
-0.690482
-0.41492
-0.138476
66.5014
66.5068
66.5216
66.5465
66.5822
66.6282
66.6891
66.7541
66.8464
66.9272
67.0269
67.0909
67.1511
-2.5795
-2.44859
-2.44231
-2.14075
-2.01828
-1.73846
-1.50152
-1.23976
-0.968986
-0.693973
-0.417042
-0.139192
66.5001
66.5053
66.5197
66.5444
66.5799
66.6262
66.6877
66.7543
66.8489
66.9338
67.0385
67.107
67.1711
-2.58921
-2.45787
-2.45161
-2.14936
-2.02659
-1.7458
-1.50805
-1.24529
-0.97339
-0.697176
-0.418989
-0.139849
66.4992
66.504
66.5181
66.5425
66.578
66.6244
66.6864
66.7547
66.8513
66.94
67.0496
67.1225
67.1905
-2.59784
-2.46608
-2.45982
-2.15699
-2.03397
-1.75232
-1.51387
-1.25021
-0.977318
-0.700034
-0.420727
-0.140436
66.4989
66.5031
66.5168
66.541
66.5763
66.6229
66.6854
66.755
66.8535
66.9456
67.0598
67.1367
67.2086
-2.6053
-2.47315
-2.46685
-2.16355
-2.0403
-1.75792
-1.51887
-1.25445
-0.980702
-0.702497
-0.422226
-0.140942
66.4988
66.5026
66.5158
66.5398
66.575
66.6216
66.6846
66.7554
66.8554
66.9505
67.0685
67.1492
67.2246
-2.6115
-2.47893
-2.47256
-2.16891
-2.04549
-1.76251
-1.52298
-1.25794
-0.983483
-0.704523
-0.423459
-0.141358
66.5012
66.5026
66.5151
66.5389
66.574
66.6208
66.6839
66.7557
66.857
66.9542
67.0753
67.1594
67.2376
-2.61635
-2.48346
-2.47692
-2.17304
-2.04946
-1.76602
-1.52612
-1.2606
-0.985614
-0.706074
-0.424403
-0.141677
66.5004
66.5022
66.5146
66.5383
66.5734
66.6201
66.6835
66.7559
66.8581
66.9569
67.0796
67.1668
67.2471
-2.61978
-2.4864
-2.47984
-2.17582
-2.05215
-1.76837
-1.52825
-1.26241
-0.987056
-0.707125
-0.425042
-0.141892
66.5067
66.5031
66.5145
66.5381
66.5731
66.6199
66.6834
66.756
66.8588
66.9586
67.0821
67.1709
67.2522
-2.6217
-2.48842
-2.4813
-2.17731
-2.05355
-1.76953
-1.52934
-1.26333
-0.987787
-0.707656
-0.425365
-0.142
66.5416
66.5405
66.5543
66.5792
66.6133
66.6538
66.7069
66.7486
66.8172
66.8448
66.9191
66.9389
66.973
-2.44825
-2.31869
-2.30834
-2.01736
-1.89633
-1.63062
-1.40383
-1.15609
-0.901662
-0.644584
-0.386788
-0.128894
66.5351
66.5388
66.5538
66.5787
66.613
66.6536
66.7068
66.7488
66.8174
66.8466
66.917
66.939
66.9743
-2.44901
-2.3197
-2.30997
-2.01866
-1.89761
-1.63181
-1.40482
-1.15691
-0.902313
-0.645053
-0.38707
-0.128989
66.533
66.5375
66.5528
66.5778
66.6122
66.653
66.7064
66.7488
66.8176
66.8481
66.9183
66.9404
66.9767
-2.45169
-2.32294
-2.31325
-2.02151
-1.90032
-1.63417
-1.40686
-1.15861
-0.903649
-0.646015
-0.38765
-0.129184
66.5294
66.5354
66.5512
66.5765
66.611
66.652
66.7055
66.7487
66.8179
66.8501
66.9193
66.9428
66.9798
-2.45614
-2.32761
-2.31812
-2.02575
-1.90438
-1.63767
-1.40991
-1.16115
-0.905648
-0.647456
-0.38852
-0.129476
66.5265
66.5332
66.5493
66.5747
66.6094
66.6507
66.7044
66.7484
66.8181
66.8523
66.9211
66.9461
66.9837
-2.46226
-2.33391
-2.32452
-2.03137
-1.90973
-1.64229
-1.41394
-1.1645
-0.908286
-0.649357
-0.389668
-0.129861
66.5236
66.5307
66.5471
66.5726
66.6074
66.649
66.7029
66.748
66.8184
66.8548
66.9235
66.9503
66.9883
-2.46991
-2.3416
-2.3323
-2.03825
-1.91629
-1.64794
-1.41888
-1.16862
-0.911528
-0.651695
-0.391081
-0.130335
66.5207
66.5281
66.5445
66.5701
66.6051
66.647
66.7012
66.7474
66.8186
66.8576
66.9263
66.9552
66.9937
-2.47894
-2.35063
-2.34138
-2.0463
-1.92396
-1.65455
-1.42466
-1.17345
-0.915332
-0.654439
-0.39274
-0.130892
66.5178
66.5253
66.5418
66.5674
66.6025
66.6447
66.6992
66.7466
66.8188
66.8605
66.9296
66.9608
67
-2.48918
-2.36077
-2.35157
-2.05538
-1.93261
-1.66203
-1.43122
-1.17892
-0.919645
-0.657552
-0.394624
-0.131525
66.5149
66.5224
66.5389
66.5645
66.5996
66.6422
66.697
66.7457
66.819
66.8636
66.9334
66.9671
67.0071
-2.50045
-2.37189
-2.36273
-2.06535
-1.94212
-1.67026
-1.43844
-1.18495
-0.924409
-0.660992
-0.396705
-0.132225
66.5119
66.5194
66.5358
66.5614
66.5966
66.6394
66.6945
66.7446
66.8192
66.8669
66.9376
66.974
67.0151
-2.51256
-2.38378
-2.37466
-2.07605
-1.95234
-1.67912
-1.44622
-1.19147
-0.929554
-0.664711
-0.398956
-0.132981
66.5089
66.5164
66.5327
66.5582
66.5933
66.6364
66.6919
66.7433
66.8194
66.8702
66.9422
66.9816
67.0239
-2.52527
-2.39624
-2.38716
-2.0873
-1.96311
-1.68847
-1.45445
-1.19836
-0.935005
-0.668652
-0.401344
-0.133784
66.506
66.5133
66.5295
66.5549
66.59
66.6333
66.6892
66.7419
66.8196
66.8736
66.9472
66.9898
67.0337
-2.53839
-2.40905
-2.40004
-2.09892
-1.97425
-1.69817
-1.463
-1.20553
-0.940679
-0.672759
-0.403832
-0.134622
66.5032
66.5104
66.5264
66.5516
66.5866
66.6301
66.6863
66.7404
66.8198
66.8771
66.9528
66.9988
67.0445
-2.55168
-2.42201
-2.41307
-2.11073
-1.98559
-1.70806
-1.47173
-1.21287
-0.94649
-0.676967
-0.406383
-0.135481
66.5004
66.5075
66.5233
66.5483
66.5833
66.6269
66.6835
66.7389
66.8201
66.8807
66.9589
67.0085
67.0564
-2.56492
-2.4349
-2.42605
-2.12252
-1.99694
-1.71798
-1.4805
-1.22025
-0.952343
-0.681209
-0.408957
-0.136348
66.4979
66.5048
66.5204
66.5452
66.5799
66.6237
66.6806
66.7374
66.8205
66.8844
66.9656
67.0189
67.0693
-2.5779
-2.44752
-2.43876
-2.13412
-2.00812
-1.72778
-1.48918
-1.22756
-0.958147
-0.685418
-0.411512
-0.137209
66.4955
66.5023
66.5176
66.5422
66.5768
66.6206
66.6779
66.736
66.821
66.8883
66.9727
67.03
67.0832
-2.59043
-2.45966
-2.451
-2.14533
-2.01895
-1.73728
-1.49762
-1.23467
-0.963803
-0.689524
-0.414005
-0.13805
66.4935
66.5001
66.5151
66.5394
66.5737
66.6176
66.6753
66.7347
66.8217
66.8922
66.9803
67.0417
67.098
-2.6023
-2.47114
-2.46259
-2.15598
-2.02925
-1.74635
-1.50568
-1.24148
-0.969218
-0.693457
-0.416395
-0.138857
66.4917
66.4981
66.5128
66.5368
66.5709
66.6149
66.6729
66.7335
66.8224
66.8961
66.9881
67.0536
67.1133
-2.61335
-2.4818
-2.47333
-2.16589
-2.03886
-1.75482
-1.51322
-1.24786
-0.974299
-0.69715
-0.418641
-0.139615
66.4903
66.4964
66.5108
66.5345
66.5684
66.6123
66.6707
66.7326
66.8232
66.9
66.9959
67.0655
67.1287
-2.62343
-2.49149
-2.48309
-2.17493
-2.04763
-1.76256
-1.52013
-1.25371
-0.978959
-0.70054
-0.420703
-0.140311
66.4894
66.4951
66.5091
66.5325
66.5662
66.6101
66.6687
66.7317
66.8241
66.9036
67.0033
67.0769
67.1436
-2.6324
-2.50004
-2.4917
-2.18294
-2.05541
-1.76945
-1.52628
-1.25892
-0.983118
-0.703567
-0.422545
-0.140934
66.4891
66.4942
66.5077
66.5308
66.5643
66.6082
66.6671
66.731
66.8249
66.9069
67.0101
67.0873
67.1574
-2.64013
-2.5074
-2.49906
-2.18983
-2.06209
-1.77537
-1.53157
-1.26341
-0.986702
-0.706177
-0.424134
-0.141471
66.4889
66.4936
66.5067
66.5295
66.5628
66.6067
66.6658
66.7305
66.8256
66.9097
67.0157
67.0963
67.1693
-2.64653
-2.5134
-2.50504
-2.19545
-2.06755
-1.78021
-1.53591
-1.2671
-0.98965
-0.708324
-0.425441
-0.141913
66.4912
66.4937
66.5059
66.5285
66.5617
66.6056
66.6648
66.7301
66.8262
66.9118
67.02
67.1034
67.1789
-2.65154
-2.51811
-2.5096
-2.19978
-2.07174
-1.78392
-1.53924
-1.26993
-0.991908
-0.70997
-0.426443
-0.142251
66.4905
66.4933
66.5053
66.5278
66.5609
66.6048
66.664
66.7298
66.8266
66.9133
67.0224
67.1082
67.1857
-2.65508
-2.52116
-2.51266
-2.2027
-2.07458
-1.7864
-1.54149
-1.27184
-0.993437
-0.711084
-0.427122
-0.14248
66.4968
66.4941
66.5052
66.5276
66.5607
66.6045
66.6638
66.7298
66.8269
66.9143
67.0236
67.1101
67.189
-2.65706
-2.52322
-2.51418
-2.20425
-2.07605
-1.78763
-1.54264
-1.27282
-0.994212
-0.711649
-0.427465
-0.142595
66.5311
66.5306
66.5444
66.5691
66.6028
66.6429
66.6955
66.7372
66.8054
66.834
66.9073
66.9288
66.9635
-2.48442
-2.35262
-2.33851
-2.04099
-1.91394
-1.64383
-1.41188
-1.16053
-0.903716
-0.645176
-0.386697
-0.128701
66.5245
66.529
66.5439
66.5686
66.6025
66.6427
66.6954
66.7374
66.8055
66.8358
66.9051
66.9289
66.9648
-2.48527
-2.35376
-2.34026
-2.04237
-1.91531
-1.64509
-1.41293
-1.1614
-0.904403
-0.64567
-0.386993
-0.1288
66.5225
66.5276
66.5429
66.5676
66.6016
66.642
66.6948
66.7373
66.8056
66.8371
66.9061
66.93
66.9671
-2.48816
-2.35723
-2.34378
-2.04542
-1.9182
-1.6476
-1.41509
-1.16319
-0.905813
-0.646685
-0.387605
-0.129005
66.5188
66.5255
66.5413
66.5662
66.6003
66.6409
66.6938
66.7369
66.8056
66.8388
66.9068
66.9322
66.9699
-2.49295
-2.36224
-2.349
-2.04995
-1.92252
-1.65132
-1.41832
-1.16588
-0.907926
-0.648206
-0.388522
-0.129313
66.516
66.5232
66.5393
66.5644
66.5986
66.6394
66.6924
66.7363
66.8055
66.8406
66.908
66.935
66.9733
-2.49951
-2.36901
-2.35585
-2.05594
-1.92823
-1.65622
-1.42259
-1.16943
-0.910715
-0.650215
-0.389736
-0.12972
66.513
66.5207
66.537
66.5621
66.5965
66.6375
66.6907
66.7355
66.8052
66.8425
66.9096
66.9386
66.9773
-2.50769
-2.37725
-2.3642
-2.06328
-1.93521
-1.66223
-1.42783
-1.17379
-0.914148
-0.652688
-0.39123
-0.130222
66.5101
66.5179
66.5344
66.5596
66.594
66.6352
66.6886
66.7343
66.8048
66.8445
66.9115
66.9425
66.9819
-2.51735
-2.38691
-2.37393
-2.07187
-1.94339
-1.66927
-1.43398
-1.17892
-0.918179
-0.655595
-0.392987
-0.130812
66.5072
66.5151
66.5316
66.5567
66.5911
66.6326
66.6862
66.7329
66.8043
66.8463
66.9135
66.9469
66.987
-2.5283
-2.39777
-2.38486
-2.08156
-1.95263
-1.67723
-1.44094
-1.18473
-0.922756
-0.658897
-0.394985
-0.131483
66.5042
66.5121
66.5285
66.5537
66.588
66.6297
66.6834
66.7312
66.8035
66.8481
66.9156
66.9516
66.9924
-2.54033
-2.40966
-2.39682
-2.0922
-1.96278
-1.68601
-1.44863
-1.19114
-0.927818
-0.662551
-0.397196
-0.132226
66.5011
66.509
66.5254
66.5504
66.5847
66.6265
66.6804
66.7291
66.8026
66.8496
66.9177
66.9563
66.9982
-2.55324
-2.42236
-2.4096
-2.10362
-1.9737
-1.69546
-1.45693
-1.19808
-0.933293
-0.666506
-0.39959
-0.133031
66.4981
66.5059
66.5221
66.547
66.5812
66.6231
66.677
66.7268
66.8014
66.8509
66.9196
66.9611
67.0042
-2.56678
-2.43566
-2.42299
-2.11564
-1.98521
-1.70545
-1.46571
-1.20543
-0.939101
-0.670705
-0.402133
-0.133887
66.4951
66.5028
66.5188
66.5435
66.5775
66.6194
66.6735
66.7241
66.8
66.8518
66.9214
66.9659
67.0103
-2.58072
-2.44933
-2.43678
-2.12805
-1.99713
-1.71582
-1.47484
-1.21309
-0.945156
-0.675085
-0.404788
-0.134781
66.4922
66.4998
66.5156
66.54
66.5738
66.6157
66.6698
66.7212
66.7984
66.8523
66.9231
66.9705
67.0166
-2.59483
-2.46314
-2.45072
-2.14066
-2.00926
-1.7264
-1.48417
-1.22093
-0.951365
-0.679581
-0.407514
-0.135699
66.4895
66.4968
66.5124
66.5365
66.57
66.6118
66.666
66.7182
66.7967
66.8525
66.9248
66.9751
67.023
-2.60887
-2.47685
-2.46459
-2.15325
-2.02141
-1.73702
-1.49356
-1.22883
-0.957629
-0.684119
-0.410268
-0.136628
66.4868
66.4941
66.5093
66.5331
66.5663
66.608
66.6621
66.715
66.795
66.8525
66.9264
66.9797
67.0297
-2.62262
-2.49026
-2.47816
-2.16563
-2.03339
-1.74751
-1.50286
-1.23666
-0.963845
-0.688628
-0.413005
-0.137551
66.4844
66.4915
66.5064
66.5298
66.5627
66.6042
66.6583
66.7119
66.7932
66.8523
66.9281
66.9843
67.0368
-2.63586
-2.50315
-2.49123
-2.17759
-2.04498
-1.7577
-1.51191
-1.2443
-0.969912
-0.693031
-0.41568
-0.138454
66.4823
66.4891
66.5037
66.5268
66.5593
66.6006
66.6547
66.7088
66.7914
66.8522
66.9299
66.9891
67.0442
-2.64839
-2.51532
-2.50358
-2.18895
-2.05602
-1.76741
-1.52055
-1.2516
-0.975725
-0.697254
-0.418247
-0.13932
66.4805
66.4871
66.5013
66.524
66.5562
66.5972
66.6512
66.7059
66.7898
66.852
66.9318
66.9939
67.0517
-2.66003
-2.5266
-2.51502
-2.19952
-2.06632
-1.7765
-1.52865
-1.25846
-0.981185
-0.701223
-0.420661
-0.140136
66.4791
66.4854
66.4992
66.5215
66.5533
66.5941
66.6481
66.7032
66.7883
66.8518
66.9337
66.9986
67.059
-2.67062
-2.53683
-2.5254
-2.20915
-2.07571
-1.78481
-1.53607
-1.26475
-0.986197
-0.70487
-0.42288
-0.140886
66.4781
66.484
66.4974
66.5193
66.5507
66.5913
66.6452
66.7008
66.7869
66.8516
66.9354
67.0029
67.0658
-2.68002
-2.54585
-2.53455
-2.21768
-2.08404
-1.79219
-1.54267
-1.27035
-0.990673
-0.708128
-0.424864
-0.141557
66.4777
66.4831
66.4959
66.5175
66.5486
66.5889
66.6428
66.6988
66.7856
66.8514
66.9368
67.0064
67.0716
-2.68811
-2.5536
-2.54236
-2.22501
-2.09119
-1.79854
-1.54836
-1.27519
-0.994533
-0.71094
-0.426577
-0.142137
66.4775
66.4824
66.4948
66.516
66.5469
66.587
66.6408
66.6971
66.7846
66.8512
66.9375
67.0091
67.076
-2.6948
-2.55991
-2.5487
-2.23099
-2.09704
-1.80374
-1.55303
-1.27916
-0.997708
-0.713254
-0.427987
-0.142614
66.4797
66.4824
66.494
66.5149
66.5456
66.5855
66.6392
66.6958
66.7837
66.8509
66.9377
67.0107
67.079
-2.70002
-2.56484
-2.55353
-2.23559
-2.10152
-1.80771
-1.5566
-1.2822
-1.00014
-0.715029
-0.429069
-0.14298
66.4791
66.482
66.4934
66.5142
66.5446
66.5845
66.6381
66.6948
66.7831
66.8505
66.9371
67.0112
67.0803
-2.70371
-2.56804
-2.55677
-2.23868
-2.10456
-1.81038
-1.55902
-1.28426
-1.00179
-0.71623
-0.429801
-0.143227
66.4853
66.4829
66.4932
66.5139
66.5443
66.5841
66.6377
66.6944
66.7827
66.8507
66.9361
67.0054
67.0804
-2.70575
-2.57018
-2.55839
-2.24033
-2.10614
-1.81169
-1.56026
-1.28531
-1.00263
-0.716839
-0.430173
-0.143352
66.5189
66.5185
66.5323
66.5566
66.5898
66.6294
66.6813
66.723
66.7906
66.8204
66.8926
66.9159
66.9511
-2.53066
-2.39536
-2.37634
-2.07039
-1.93567
-1.65989
-1.42143
-1.16562
-0.905875
-0.645597
-0.386376
-0.128384
66.5122
66.517
66.5317
66.5561
66.5894
66.6292
66.6811
66.7231
66.7907
66.822
66.8902
66.9159
66.9524
-2.53162
-2.39664
-2.37823
-2.07189
-1.93715
-1.66124
-1.42256
-1.16654
-0.906605
-0.646121
-0.386689
-0.128488
66.5102
66.5156
66.5307
66.5551
66.5885
66.6284
66.6804
66.7228
66.7905
66.8232
66.8909
66.9169
66.9545
-2.5348
-2.40042
-2.38206
-2.07518
-1.94026
-1.66393
-1.42487
-1.16846
-0.908108
-0.647201
-0.38734
-0.128706
66.5065
66.5134
66.529
66.5536
66.5871
66.6271
66.6792
66.7221
66.7902
66.8245
66.8912
66.9186
66.957
-2.54002
-2.40589
-2.38773
-2.08007
-1.94491
-1.66793
-1.42834
-1.17133
-0.910363
-0.648823
-0.388318
-0.129034
66.5036
66.5111
66.527
66.5516
66.5852
66.6254
66.6776
66.7211
66.7896
66.8257
66.8917
66.921
66.9598
-2.54717
-2.41324
-2.39518
-2.08654
-1.95106
-1.6732
-1.43291
-1.17512
-0.913342
-0.650967
-0.389612
-0.129468
66.5007
66.5085
66.5246
66.5493
66.5829
66.6232
66.6755
66.7198
66.7888
66.8269
66.8924
66.9236
66.963
-2.55606
-2.42219
-2.40425
-2.09446
-1.9586
-1.67966
-1.43853
-1.1798
-0.917013
-0.65361
-0.391209
-0.130004
66.4977
66.5057
66.5219
66.5466
66.5802
66.6206
66.6729
66.718
66.7876
66.8278
66.8931
66.9264
66.9664
-2.56654
-2.43268
-2.41483
-2.10374
-1.96743
-1.68724
-1.44513
-1.18529
-0.921331
-0.656721
-0.393089
-0.130636
66.4947
66.5027
66.519
66.5436
66.5771
66.6177
66.6699
66.7158
66.7861
66.8283
66.8934
66.9291
66.9698
-2.57841
-2.44446
-2.42671
-2.11422
-1.9774
-1.69582
-1.45263
-1.19153
-0.926242
-0.660262
-0.39523
-0.131355
66.4916
66.4996
66.5158
66.5403
66.5737
66.6143
66.6665
66.7131
66.7841
66.8283
66.8933
66.9315
66.9729
-2.59145
-2.45734
-2.4397
-2.12572
-1.98838
-1.70529
-1.46091
-1.19843
-0.931681
-0.664186
-0.397605
-0.132153
66.4886
66.4965
66.5125
66.5368
66.5701
66.6106
66.6627
66.7099
66.7818
66.8276
66.8925
66.9333
66.9755
-2.6054
-2.4711
-2.45359
-2.13807
-2.0002
-1.71551
-1.46986
-1.20591
-0.937574
-0.668441
-0.40018
-0.13302
66.4855
66.4933
66.5091
66.5332
66.5662
66.6065
66.6586
66.7062
66.7789
66.8261
66.8908
66.934
66.9772
-2.62002
-2.48548
-2.46813
-2.15106
-2.01266
-1.72631
-1.47934
-1.21384
-0.943838
-0.672967
-0.402922
-0.133943
66.4824
66.4901
66.5057
66.5294
66.5621
66.6023
66.6541
66.7019
66.7755
66.8236