/*--------------------------------*- C++ -*----------------------------------*\
| =========                 |                                                 |
| \\      /  F ield         | OpenFOAM: The Open Source CFD Toolbox           |
|  \\    /   O peration     | Version:  2306                                  |
|   \\  /    A nd           | Website:  www.openfoam.com                      |
|    \\/     M anipulation  |                                                 |
\*---------------------------------------------------------------------------*/
FoamFile
{
    version     2.0;
    format      ascii;
    arch        "LSB;label=32;scalar=64";
    class       volScalarField;
    location    "3.6";
    object      p;
}
// * * * * * * * * * * * * * * * * * * * * * * * * * * * * * * * * * * * * * //

dimensions      [0 2 -2 0 0 0 0];

internalField   nonuniform List<scalar> 
288632
(
60.4984
60.49
60.5012
60.5243
60.5565
60.5954
60.6454
60.6802
60.7584
60.7637
60.8593
60.8623
60.8997
-1.63379
-1.52886
-1.58095
-1.33739
-1.28921
-1.10285
-0.950588
-0.783953
-0.612513
-0.438522
-0.263556
-0.0880061
60.4916
60.4885
60.5006
60.5238
60.556
60.595
60.6452
60.6803
60.7584
60.7645
60.859
60.8619
60.9002
-1.63446
-1.52975
-1.58252
-1.33859
-1.29041
-1.10394
-0.951495
-0.784695
-0.613096
-0.438939
-0.263806
-0.0880906
60.4893
60.4869
60.4993
60.5226
60.5549
60.5941
60.6443
60.68
60.7581
60.7659
60.8591
60.8627
60.9017
-1.63697
-1.5328
-1.58561
-1.34127
-1.29292
-1.10612
-0.953351
-0.786218
-0.614284
-0.439788
-0.264316
-0.0882607
60.4856
60.4844
60.4974
60.5208
60.5533
60.5926
60.643
60.6794
60.7575
60.7672
60.8594
60.8644
60.9038
-1.64126
-1.53722
-1.59018
-1.34526
-1.29666
-1.10935
-0.956118
-0.788494
-0.616058
-0.441056
-0.265077
-0.0885146
60.4824
60.4817
60.4949
60.5185
60.5511
60.5906
60.6412
60.6785
60.7568
60.7686
60.8599
60.8666
60.9063
-1.6472
-1.54327
-1.59619
-1.35057
-1.3016
-1.1136
-0.959763
-0.791491
-0.618394
-0.442725
-0.266079
-0.0888487
60.479
60.4787
60.4921
60.5158
60.5485
60.5882
60.639
60.6774
60.7558
60.7703
60.8608
60.8693
60.9094
-1.65466
-1.55066
-1.60352
-1.35707
-1.30764
-1.11881
-0.964231
-0.795169
-0.62126
-0.444774
-0.267309
-0.0892589
60.4755
60.4754
60.4889
60.5126
60.5453
60.5853
60.6363
60.676
60.7548
60.7721
60.8621
60.8726
60.9132
-1.66353
-1.5594
-1.61208
-1.3647
-1.31471
-1.1249
-0.969462
-0.799475
-0.624617
-0.447175
-0.26875
-0.0897394
60.4719
60.4719
60.4854
60.5091
60.5419
60.582
60.6333
60.6744
60.7536
60.7741
60.8639
60.8767
60.9177
-1.67365
-1.56926
-1.62173
-1.37333
-1.32269
-1.13179
-0.97538
-0.804349
-0.628417
-0.449893
-0.270382
-0.0902837
60.4682
60.4682
60.4816
60.5053
60.538
60.5784
60.63
60.6726
60.7524
60.7765
60.8662
60.8815
60.9232
-1.68485
-1.58013
-1.63233
-1.38282
-1.33147
-1.13938
-0.981898
-0.809719
-0.632607
-0.45289
-0.272182
-0.0908841
60.4645
60.4644
60.4777
60.5012
60.5339
60.5745
60.6265
60.6707
60.7512
60.779
60.8693
60.8872
60.9297
-1.69695
-1.59182
-1.64371
-1.39304
-1.34092
-1.14756
-0.988922
-0.815508
-0.637125
-0.456123
-0.274124
-0.091532
60.4607
60.4605
60.4736
60.497
60.5297
60.5704
60.6227
60.6687
60.75
60.7819
60.8731
60.894
60.9375
-1.70975
-1.60414
-1.65569
-1.40383
-1.35089
-1.15619
-0.996344
-0.82163
-0.641904
-0.459543
-0.276179
-0.0922178
60.4568
60.4566
60.4695
60.4927
60.5253
60.5661
60.6189
60.6667
60.749
60.7853
60.8779
60.9021
60.9468
-1.72305
-1.6169
-1.6681
-1.41501
-1.36123
-1.16515
-1.00405
-0.82799
-0.646871
-0.4631
-0.278317
-0.0929312
60.4531
60.4527
60.4654
60.4884
60.5208
60.5618
60.615
60.6647
60.7482
60.7892
60.8837
60.9115
60.9576
-1.73663
-1.62989
-1.68072
-1.4264
-1.37178
-1.1743
-1.01193
-0.834491
-0.651951
-0.466738
-0.280504
-0.0936614
60.4495
60.4489
60.4614
60.4841
60.5163
60.5575
60.6112
60.6629
60.7477
60.7937
60.8906
60.9223
60.9703
-1.75027
-1.6429
-1.69336
-1.43784
-1.38236
-1.18349
-1.01984
-0.84103
-0.657063
-0.470401
-0.282706
-0.0943967
60.446
60.4453
60.4575
60.48
60.512
60.5532
60.6075
60.6612
60.7475
60.7987
60.8987
60.9346
60.9846
-1.76377
-1.65573
-1.70582
-1.44912
-1.39281
-1.19257
-1.02767
-0.847502
-0.662125
-0.474028
-0.284888
-0.0951254
60.4428
60.442
60.4538
60.476
60.5078
60.5492
60.604
60.6597
60.7476
60.8042
60.908
60.9481
61.0006
-1.77689
-1.66817
-1.71789
-1.46008
-1.40296
-1.20141
-1.03529
-0.853802
-0.667054
-0.477563
-0.287014
-0.0958357
60.4399
60.4389
60.4504
60.4723
60.5039
60.5454
60.6007
60.6585
60.748
60.81
60.9182
60.9628
61.018
-1.78943
-1.68002
-1.72938
-1.47053
-1.41265
-1.20984
-1.04257
-0.859827
-0.67177
-0.480945
-0.289049
-0.0965158
60.4374
60.4361
60.4473
60.4689
60.5003
60.5418
60.5977
60.6575
60.7487
60.8162
60.9291
60.9783
61.0365
-1.8012
-1.6911
-1.74011
-1.48031
-1.42171
-1.21774
-1.04939
-0.865476
-0.676194
-0.484118
-0.290959
-0.0971541
60.4353
60.4337
60.4446
60.4658
60.497
60.5387
60.595
60.6568
60.7497
60.8224
60.9403
60.994
61.0555
-1.81202
-1.70124
-1.7499
-1.48926
-1.43
-1.22498
-1.05564
-0.870653
-0.68025
-0.487029
-0.292711
-0.0977397
60.4338
60.4318
60.4423
60.4632
60.4942
60.5359
60.5927
60.6563
60.7508
60.8284
60.9514
61.0095
61.0744
-1.8217
-1.71026
-1.75859
-1.49723
-1.43737
-1.23142
-1.06121
-0.87527
-0.683868
-0.489626
-0.294275
-0.0982625
60.4329
60.4304
60.4404
60.4609
60.4918
60.5336
60.5908
60.6561
60.752
60.8339
60.9617
61.024
61.0922
-1.83013
-1.71808
-1.76606
-1.50411
-1.44372
-1.23697
-1.06601
-0.879248
-0.686987
-0.491865
-0.295623
-0.0987133
60.4325
60.4294
60.4389
60.4592
60.4898
60.5317
60.5893
60.6559
60.7532
60.8387
60.9709
61.0369
61.1082
-1.83716
-1.72451
-1.77215
-1.50976
-1.44893
-1.24153
-1.06995
-0.882519
-0.689552
-0.493707
-0.296732
-0.099084
60.434
60.429
60.4378
60.4579
60.4884
60.5303
60.5881
60.6559
60.7542
60.8426
60.9783
61.0475
61.1214
-1.84272
-1.72958
-1.77681
-1.51412
-1.45292
-1.24502
-1.07298
-0.885026
-0.691518
-0.495118
-0.297582
-0.0993679
60.434
60.4285
60.4371
60.457
60.4874
60.5294
60.5874
60.6559
60.7549
60.8453
60.9833
61.0553
61.1312
-1.8467
-1.73292
-1.77994
-1.51708
-1.45563
-1.24737
-1.07502
-0.886727
-0.69285
-0.496075
-0.298158
-0.0995598
60.4398
60.4292
60.4368
60.4567
60.487
60.529
60.5871
60.656
60.7554
60.8469
60.9864
61.0591
61.1372
-1.84901
-1.73522
-1.78149
-1.51869
-1.45703
-1.24854
-1.07607
-0.887599
-0.693528
-0.496561
-0.298449
-0.0996561
60.4902
60.4869
60.499
60.5221
60.5542
60.5931
60.6431
60.678
60.756
60.7618
60.8563
60.8598
60.8983
-1.6388
-1.53429
-1.58627
-1.34157
-1.29231
-1.10537
-0.95211
-0.784839
-0.61297
-0.438698
-0.263589
-0.0879925
60.4833
60.4852
60.4984
60.5215
60.5538
60.5928
60.6428
60.678
60.7559
60.7636
60.8533
60.8594
60.8991
-1.63942
-1.53521
-1.58788
-1.3428
-1.29354
-1.10648
-0.953029
-0.785595
-0.613563
-0.439122
-0.263843
-0.0880783
60.4813
60.4835
60.4971
60.5203
60.5527
60.5918
60.642
60.6777
60.7555
60.7648
60.8532
60.8601
60.9008
-1.64197
-1.53832
-1.59102
-1.34553
-1.29609
-1.10869
-0.954912
-0.787139
-0.614767
-0.439982
-0.264359
-0.0882506
60.4778
60.481
60.4951
60.5185
60.551
60.5903
60.6406
60.677
60.7548
60.7661
60.853
60.8617
60.9029
-1.64632
-1.54282
-1.59568
-1.34959
-1.29989
-1.11197
-0.95772
-0.789447
-0.616565
-0.441267
-0.26513
-0.0885077
60.4745
60.4784
60.4926
60.5162
60.5488
60.5882
60.6387
60.6761
60.754
60.7675
60.8533
60.8637
60.9054
-1.65235
-1.54898
-1.6018
-1.35499
-1.30491
-1.11629
-0.961419
-0.792486
-0.618933
-0.442959
-0.266146
-0.0888463
60.471
60.4755
60.4897
60.5134
60.5461
60.5857
60.6364
60.6748
60.7529
60.7689
60.8541
60.8663
60.9084
-1.65992
-1.55651
-1.60926
-1.3616
-1.31104
-1.12158
-0.965956
-0.796216
-0.621839
-0.445036
-0.267393
-0.089262
60.4675
60.4722
60.4865
60.5102
60.5429
60.5828
60.6336
60.6733
60.7517
60.7705
60.8551
60.8695
60.9121
-1.66891
-1.56541
-1.61797
-1.36936
-1.31823
-1.12777
-0.971267
-0.800585
-0.625244
-0.44747
-0.268854
-0.0897491
60.4639
60.4687
60.483
60.5067
60.5394
60.5794
60.6305
60.6715
60.7503
60.7723
60.8567
60.8733
60.9165
-1.67917
-1.57544
-1.6278
-1.37813
-1.32634
-1.13478
-0.977276
-0.805531
-0.6291
-0.450227
-0.270509
-0.090301
60.4601
60.465
60.4792
60.5028
60.5355
60.5757
60.627
60.6695
60.7488
60.7741
60.8587
60.8779
60.9218
-1.69053
-1.58651
-1.63859
-1.3878
-1.33527
-1.14249
-0.983898
-0.810983
-0.633351
-0.453267
-0.272335
-0.0909101
60.4564
60.4611
60.4753
60.4987
60.5313
60.5716
60.6233
60.6674
60.7473
60.7762
60.8613
60.8835
60.9281
-1.7028
-1.59841
-1.65018
-1.3982
-1.34488
-1.1508
-0.991034
-0.816861
-0.637937
-0.456548
-0.274305
-0.0915675
60.4525
60.4572
60.4712
60.4945
60.5269
60.5674
60.6194
60.6651
60.7458
60.7786
60.8646
60.8901
60.9357
-1.71578
-1.61096
-1.66238
-1.40917
-1.35503
-1.15958
-0.998578
-0.823079
-0.64279
-0.460021
-0.276392
-0.0922636
60.4487
60.4533
60.467
60.4901
60.5224
60.563
60.6153
60.6627
60.7444
60.7814
60.8687
60.8978
60.9446
-1.72927
-1.62395
-1.67502
-1.42055
-1.36554
-1.16869
-1.00641
-0.829541
-0.647836
-0.463633
-0.278562
-0.0929881
60.445
60.4494
60.4629
60.4857
60.5179
60.5585
60.6112
60.6604
60.7431
60.7846
60.8736
60.9067
60.955
-1.74304
-1.63717
-1.68787
-1.43214
-1.37627
-1.178
-1.01442
-0.836148
-0.652997
-0.467329
-0.280784
-0.0937297
60.4413
60.4456
60.4588
60.4814
60.5133
60.554
60.6071
60.6581
60.7421
60.7883
60.8797
60.9169
60.9672
-1.75687
-1.65042
-1.70074
-1.44378
-1.38704
-1.18735
-1.02247
-0.842796
-0.658192
-0.47105
-0.283021
-0.0944769
60.4379
60.442
60.4549
60.4772
60.5089
60.5496
60.6031
60.656
60.7413
60.7924
60.8868
60.9285
60.9809
-1.77054
-1.66347
-1.71343
-1.45527
-1.39768
-1.19659
-1.03044
-0.849378
-0.663339
-0.474738
-0.285239
-0.0952177
60.4346
60.4385
60.4512
60.4731
60.5046
60.5453
60.5993
60.6541
60.7409
60.7969
60.895
60.9413
60.9963
-1.78384
-1.67613
-1.72572
-1.46643
-1.40802
-1.20558
-1.03819
-0.855786
-0.668352
-0.478332
-0.287401
-0.0959399
60.4317
60.4354
60.4477
60.4693
60.5005
60.5413
60.5958
60.6524
60.7408
60.8018
60.9042
60.9553
61.0132
-1.79655
-1.68819
-1.73743
-1.47707
-1.41788
-1.21417
-1.0456
-0.861916
-0.673149
-0.481772
-0.28947
-0.0966315
60.4292
60.4327
60.4446
60.4659
60.4968
60.5376
60.5925
60.651
60.7409
60.807
60.914
60.97
61.0312
-1.80848
-1.69946
-1.74835
-1.48702
-1.4271
-1.22221
-1.05255
-0.867665
-0.67765
-0.485
-0.291413
-0.0972809
60.4271
60.4303
60.4418
60.4627
60.4934
60.5343
60.5895
60.6498
60.7414
60.8122
60.9241
60.9851
61.0497
-1.81943
-1.70978
-1.75832
-1.49614
-1.43554
-1.22958
-1.05891
-0.872934
-0.681778
-0.487962
-0.293196
-0.0978769
60.4255
60.4283
60.4395
60.46
60.4905
60.5314
60.587
60.649
60.742
60.8173
60.9341
60.9999
61.0681
-1.82925
-1.71895
-1.76717
-1.50425
-1.44305
-1.23614
-1.06458
-0.877635
-0.685461
-0.490605
-0.294788
-0.098409
60.4246
60.4269
60.4375
60.4578
60.488
60.5289
60.5849
60.6483
60.7427
60.822
60.9435
61.0138
61.0854
-1.83777
-1.7269
-1.77477
-1.51125
-1.44952
-1.24179
-1.06947
-0.881685
-0.688636
-0.492884
-0.29616
-0.0988679
60.4242
60.4259
60.436
60.4559
60.486
60.5269
60.5832
60.6479
60.7435
60.8261
60.9518
61.0262
61.1011
-1.8449
-1.73343
-1.78097
-1.517
-1.45482
-1.24643
-1.07348
-0.885016
-0.691248
-0.494759
-0.297289
-0.0992454
60.4257
60.4255
60.435
60.4546
60.4845
60.5254
60.5819
60.6476
60.7442
60.8293
60.9585
61.0363
61.114
-1.85052
-1.73858
-1.78571
-1.52144
-1.45889
-1.24999
-1.07656
-0.887569
-0.69325
-0.496196
-0.298154
-0.0995345
60.4257
60.425
60.4342
60.4537
60.4835
60.5244
60.581
60.6474
60.7447
60.8316
60.9629
61.0436
61.1235
-1.85454
-1.74198
-1.78889
-1.52444
-1.46164
-1.25238
-1.07864
-0.889301
-0.694606
-0.49717
-0.29874
-0.09973
60.4314
60.4257
60.434
60.4534
60.4831
60.524
60.5807
60.6474
60.7451
60.8329
60.9663
61.0459
61.129
-1.85689
-1.7443
-1.79046
-1.52607
-1.46307
-1.25356
-1.07971
-0.890188
-0.695295
-0.497664
-0.299037
-0.0998279
60.4848
60.4821
60.4944
60.5175
60.5496
60.5883
60.6381
60.6731
60.7507
60.7578
60.8507
60.8554
60.8951
-1.65026
-1.54612
-1.59661
-1.3498
-1.29822
-1.10997
-0.954809
-0.786335
-0.613638
-0.43886
-0.263523
-0.0879109
60.4783
60.4803
60.4938
60.5169
60.5491
60.5879
60.6378
60.6731
60.7505
60.7594
60.8474
60.855
60.8959
-1.65086
-1.54709
-1.59827
-1.35107
-1.29949
-1.11111
-0.955752
-0.787115
-0.614247
-0.439294
-0.263784
-0.0879987
60.476
60.4787
60.4925
60.5157
60.5479
60.5869
60.6368
60.6727
60.7501
60.7605
60.8474
60.8556
60.8976
-1.65351
-1.55031
-1.60153
-1.35389
-1.30213
-1.11339
-0.957687
-0.788703
-0.615483
-0.440177
-0.264313
-0.0881752
60.4722
60.4763
60.4905
60.5139
60.5462
60.5853
60.6354
60.6719
60.7493
60.7616
60.8472
60.857
60.8997
-1.65801
-1.55499
-1.60635
-1.35809
-1.30605
-1.11677
-0.960577
-0.791075
-0.61733
-0.441496
-0.265104
-0.0884389
60.4688
60.4737
60.488
60.5115
60.5439
60.5832
60.6334
60.6708
60.7482
60.7627
60.8472
60.8588
60.902
-1.66424
-1.56138
-1.61269
-1.36367
-1.31122
-1.12122
-0.964385
-0.7942
-0.619762
-0.443233
-0.266146
-0.0887863
60.4654
60.4706
60.4852
60.5087
60.5411
60.5805
60.6309
60.6693
60.7468
60.7639
60.8475
60.861
60.9048
-1.67206
-1.56919
-1.62041
-1.3705
-1.31756
-1.12667
-0.969056
-0.798036
-0.622749
-0.445366
-0.267427
-0.089213
60.4618
60.4673
60.4819
60.5054
60.5379
60.5774
60.6279
60.6675
60.7452
60.765
60.848
60.8636
60.9081
-1.68135
-1.57841
-1.62944
-1.37853
-1.32497
-1.13306
-0.974528
-0.80253
-0.62625
-0.447868
-0.268927
-0.0897133
60.4582
60.4638
60.4783
60.5018
60.5342
60.5739
60.6245
60.6653
60.7434
60.7662
60.8488
60.8668
60.9119
-1.69195
-1.58882
-1.63962
-1.38761
-1.33336
-1.14029
-0.980722
-0.807621
-0.630216
-0.450702
-0.270629
-0.0902806
60.4545
60.46
60.4745
60.4979
60.5302
60.5699
60.6207
60.6629
60.7414
60.7673
60.8499
60.8707
60.9165
-1.70368
-1.60029
-1.65081
-1.3976
-1.34258
-1.14826
-0.987552
-0.813236
-0.634592
-0.45383
-0.272507
-0.090907
60.4506
60.4561
60.4704
60.4937
60.5258
60.5656
60.6167
60.6602
60.7392
60.7685
60.8513
60.8752
60.9219
-1.71636
-1.61263
-1.66282
-1.40836
-1.35252
-1.15684
-0.994915
-0.819294
-0.639316
-0.457208
-0.274535
-0.0915836
60.4468
60.4522
60.4663
60.4893
60.5213
60.5611
60.6123
60.6573
60.737
60.7699
60.8532
60.8805
60.9283
-1.72976
-1.62564
-1.67547
-1.41972
-1.36301
-1.16591
-1.0027
-0.825706
-0.644317
-0.460786
-0.276684
-0.0923005
60.4429
60.4482
60.4621
60.4848
60.5166
60.5564
60.6078
60.6542
60.7347
60.7714
60.8557
60.8867
60.9358
-1.74369
-1.6391
-1.68857
-1.4315
-1.37389
-1.17534
-1.0108
-0.832374
-0.649521
-0.464509
-0.278921
-0.0930472
60.4391
60.4442
60.4578
60.4803
60.5118
60.5516
60.6032
60.6511
60.7325
60.7731
60.8588
60.8937
60.9445
-1.7579
-1.6528
-1.7019
-1.44351
-1.385
-1.18497
-1.01908
-0.839195
-0.654848
-0.468322
-0.281212
-0.0938121
60.4355
60.4404
60.4537
60.4758
60.507
60.5467
60.5986
60.648
60.7304
60.775
60.8627
60.9017
60.9547
-1.77216
-1.66653
-1.71524
-1.45556
-1.39615
-1.19464
-1.0274
-0.846063
-0.660213
-0.472163
-0.283522
-0.0945832
60.432
60.4367
60.4497
60.4714
60.5023
60.542
60.594
60.645
60.7285
60.7773
60.8676
60.9109
60.9663
-1.78627
-1.68006
-1.7284
-1.46746
-1.40716
-1.20422
-1.03565
-0.852867
-0.66553
-0.475973
-0.285812
-0.0953483
60.4287
60.4332
60.4459
60.4673
60.4978
60.5373
60.5896
60.6421
60.7268
60.7799
60.8733
60.9211
60.9793
-1.79998
-1.69317
-1.74115
-1.47902
-1.41787
-1.21353
-1.04367
-0.859495
-0.670714
-0.479687
-0.288046
-0.0960946
60.4257
60.4301
60.4424
60.4633
60.4936
60.533
60.5855
60.6395
60.7254
60.7828
60.8799
60.9322
60.9937
-1.81308
-1.70566
-1.75328
-1.49004
-1.42809
-1.22242
-1.05135
-0.865838
-0.675677
-0.483244
-0.290186
-0.0968099
60.4232
60.4272
60.4392
60.4597
60.4896
60.5289
60.5816
60.6372
60.7244
60.7859
60.8871
60.9441
61.0091
-1.82537
-1.71733
-1.7646
-1.50036
-1.43765
-1.23076
-1.05854
-0.87179
-0.680335
-0.486585
-0.292196
-0.0974818
60.4211
60.4248
60.4363
60.4565
60.4861
60.5252
60.5781
60.6352
60.7236
60.7892
60.8947
60.9563
61.0249
-1.83666
-1.72801
-1.77494
-1.5098
-1.4464
-1.2384
-1.06514
-0.877248
-0.684609
-0.48965
-0.294042
-0.0980987
60.4195
60.4229
60.4339
60.4537
60.4829
60.522
60.5751
60.6334
60.7231
60.7924
60.9022
60.9683
61.0407
-1.84676
-1.7375
-1.78411
-1.5182
-1.45419
-1.2452
-1.07102
-0.882118
-0.688424
-0.492388
-0.29569
-0.0986498
60.4185
60.4214
60.4319
60.4513
60.4803
60.5192
60.5725
60.632
60.7229
60.7954
60.9094
60.9797
61.0557
-1.85554
-1.74572
-1.79198
-1.52546
-1.4609
-1.25106
-1.07608
-0.886317
-0.691714
-0.494749
-0.297112
-0.0991253
60.4181
60.4204
60.4304
60.4494
60.4781
60.517
60.5704
60.631
60.7227
60.798
60.9157
60.9897
61.0691
-1.86287
-1.75247
-1.79841
-1.53141
-1.46639
-1.25587
-1.08025
-0.889769
-0.69442
-0.496692
-0.298282
-0.0995165
60.4195
60.42
60.4293
60.448
60.4765
60.5153
60.5688
60.6302
60.7227
60.8002
60.9208
60.9979
61.0803
-1.86865
-1.7578
-1.80332
-1.536
-1.47061
-1.25956
-1.08344
-0.892417
-0.696495
-0.498182
-0.299179
-0.0998163
60.4195
60.4195
60.4285
60.4471
60.4754
60.5142
60.5678
60.6297
60.7228
60.8017
60.924
61.004
61.0884
-1.87279
-1.76131
-1.80662
-1.53912
-1.47346
-1.26204
-1.0856
-0.894212
-0.697901
-0.499191
-0.299786
-0.100019
60.4252
60.4202
60.4282
60.4467
60.475
60.5137
60.5673
60.6295
60.7229
60.8026
60.9264
61.0075
61.0928
-1.87519
-1.7637
-1.80824
-1.5408
-1.47494
-1.26327
-1.08671
-0.89513
-0.698615
-0.499703
-0.300094
-0.100121
60.4766
60.4751
60.4877
60.5107
60.5425
60.581
60.6304
60.6657
60.7427
60.751
60.8424
60.849
60.8892
-1.66865
-1.56368
-1.61193
-1.36202
-1.30691
-1.11665
-0.958665
-0.788416
-0.614488
-0.43898
-0.26334
-0.0877553
60.4701
60.4733
60.487
60.5101
60.542
60.5806
60.6301
60.6656
60.7425
60.7527
60.8388
60.8485
60.8902
-1.66932
-1.56474
-1.61366
-1.36336
-1.30825
-1.11784
-0.959647
-0.789228
-0.61512
-0.43943
-0.26361
-0.0878458
60.4677
60.4717
60.4857
60.5088
60.5408
60.5795
60.6291
60.665
60.7418
60.7536
60.8387
60.8489
60.8918
-1.67212
-1.56813
-1.61709
-1.36632
-1.311
-1.12021
-0.961663
-0.79088
-0.616405
-0.440347
-0.264159
-0.0880287
60.4639
60.4693
60.4837
60.507
60.539
60.5778
60.6275
60.6641
60.7408
60.7544
60.838
60.85
60.8936
-1.67686
-1.57308
-1.62217
-1.37073
-1.31511
-1.12375
-0.964675
-0.793348
-0.618324
-0.441716
-0.26498
-0.0883021
60.4605
60.4665
60.4812
60.5045
60.5366
60.5755
60.6253
60.6627
60.7394
60.7552
60.8375
60.8513
60.8956
-1.68342
-1.57981
-1.62884
-1.37659
-1.32053
-1.1284
-0.968646
-0.796601
-0.620853
-0.443521
-0.266062
-0.0886627
60.457
60.4635
60.4783
60.5016
60.5337
60.5727
60.6225
60.6608
60.7377
60.7558
60.8372
60.853
60.8979
-1.69165
-1.58805
-1.63697
-1.38377
-1.32716
-1.1341
-0.97352
-0.800597
-0.623961
-0.445739
-0.267392
-0.089106
60.4535
60.4601
60.4749
60.4983
60.5303
60.5693
60.6192
60.6586
60.7355
60.7563
60.8368
60.8549
60.9004
-1.70142
-1.59777
-1.64648
-1.39219
-1.33493
-1.14079
-0.979233
-0.805282
-0.627606
-0.448341
-0.268953
-0.0896262
60.4498
60.4565
60.4713
60.4945
60.5264
60.5655
60.6154
60.6559
60.733
60.7565
60.8365
60.8572
60.9033
-1.71257
-1.60874
-1.6572
-1.40173
-1.34372
-1.14835
-0.985706
-0.810593
-0.631739
-0.451292
-0.270724
-0.0902166
60.446
60.4527
60.4673
60.4904
60.5222
60.5613
60.6112
60.6528
60.7302
60.7565
60.8362
60.8598
60.9066
-1.72491
-1.62084
-1.66899
-1.41223
-1.3534
-1.1567
-0.992847
-0.816456
-0.636304
-0.454553
-0.272681
-0.0908691
60.4422
60.4487
60.4632
60.4861
60.5176
60.5566
60.6066
60.6493
60.727
60.7563
60.8359
60.8627
60.9103
-1.73823
-1.63384
-1.68165
-1.42354
-1.36383
-1.1657
-1.00055
-0.822787
-0.641236
-0.458077
-0.274796
-0.0915747
60.4383
60.4447
60.459
60.4815
60.5128
60.5517
60.6017
60.6455
60.7236
60.756
60.8356
60.8659
60.9145
-1.75232
-1.64755
-1.69498
-1.43549
-1.37485
-1.17522
-1.00871
-0.829494
-0.646462
-0.461813
-0.27704
-0.0923231
60.4344
60.4406
60.4546
60.4769
60.5078
60.5465
60.5965
60.6414
60.72
60.7554
60.8354
60.8694
60.9194
-1.76694
-1.66174
-1.70879
-1.44788
-1.38629
-1.18511
-1.0172
-0.836475
-0.651906
-0.465706
-0.279378
-0.0931033
60.4305
60.4366
60.4503
60.4722
60.5027
60.5412
60.5911
60.6371
60.7163
60.7547
60.8355
60.8734
60.9249
-1.78187
-1.67618
-1.72284
-1.46052
-1.39797
-1.19523
-1.02589
-0.843624
-0.657483
-0.469696
-0.281775
-0.0939035
60.4268
60.4327
60.446
60.4675
60.4976
60.5359
60.5857
60.6327
60.7125
60.754
60.836
60.8779
60.9313
-1.79685
-1.69064
-1.73692
-1.47321
-1.4097
-1.2054
-1.03463
-0.850828
-0.663106
-0.47372
-0.284193
-0.094711
60.4232
60.4289
60.4419
60.4629
60.4926
60.5306
60.5803
60.6283
60.7088
60.7534
60.837
60.883
60.9386
-1.81166
-1.70488
-1.75079
-1.48573
-1.4213
-1.21547
-1.04329
-0.85797
-0.668685
-0.477714
-0.286594
-0.0955129
60.4199
60.4254
60.438
60.4586
60.4878
60.5254
60.575
60.6241
60.7053
60.7528
60.8387
60.8888
60.9471
-1.82604
-1.71868
-1.76423
-1.4979
-1.43258
-1.22527
-1.05173
-0.864935
-0.674127
-0.481612
-0.288938
-0.0962961
60.4169
60.4222
60.4344
60.4544
60.4832
60.5205
60.57
60.62
60.702
60.7525
60.841
60.8954
60.9564
-1.83978
-1.73183
-1.77702
-1.50951
-1.44335
-1.23464
-1.05981
-0.871604
-0.679342
-0.485348
-0.291186
-0.0970472
60.4143
60.4193
60.431
60.4506
60.4789
60.5159
60.5652
60.6162
60.699
60.7524
60.8438
60.9025
60.9667
-1.85265
-1.7441
-1.78896
-1.52038
-1.45342
-1.24343
-1.06739
-0.877865
-0.68424
-0.488859
-0.293298
-0.0977534
60.4122
60.4168
60.4281
60.4472
60.4751
60.5117
60.5609
60.6128
60.6964
60.7525
60.8471
60.91
60.9773
-1.86447
-1.75532
-1.79985
-1.53032
-1.46265
-1.25147
-1.07434
-0.88361
-0.688737
-0.492084
-0.295239
-0.0984023
60.4105
60.4148
60.4256
60.4442
60.4716
60.508
60.5571
60.6098
60.6941
60.7527
60.8505
60.9173
60.988
-1.87504
-1.7653
-1.80951
-1.53917
-1.47086
-1.25865
-1.08053
-0.888739
-0.692754
-0.494965
-0.296973
-0.0989824
60.4095
60.4133
60.4235
60.4417
60.4687
60.5048
60.5539
60.6073
60.6922
60.753
60.8538
60.9242
60.998
-1.88422
-1.77393
-1.81781
-1.5468
-1.47793
-1.26483
-1.08588
-0.893163
-0.696219
-0.497451
-0.298471
-0.0994832
60.4091
60.4122
60.4219
60.4397
60.4664
60.5022
60.5512
60.6052
60.6908
60.7533
60.8566
60.9302
61.0069
-1.89188
-1.78101
-1.82458
-1.55307
-1.48372
-1.2699
-1.09027
-0.896802
-0.699071
-0.499498
-0.299703
-0.0998954
60.4105
60.4118
60.4207
60.4382
60.4646
60.5003
60.5492
60.6036
60.6896
60.7535
60.8588
60.935
61.0141
-1.89791
-1.78659
-1.82975
-1.5579
-1.48817
-1.27379
-1.09364
-0.899593
-0.701258
-0.501067
-0.300648
-0.100212
60.4104
60.4113
60.4199
60.4372
60.4634
60.499
60.5478
60.6026
60.6888
60.7538
60.8599
60.9384
61.0191
-1.90222
-1.79027
-1.83322
-1.56118
-1.49118
-1.27641
-1.09592
-0.901484
-0.70274
-0.502131
-0.301289
-0.100425
60.4161
60.412
60.4196
60.4368
60.4629
60.4984
60.5472
60.6021
60.6886
60.7541
60.8606
60.94
61.0216
-1.90472
-1.79274
-1.83494
-1.56294
-1.49273
-1.27771
-1.09709
-0.902447
-0.703492
-0.502671
-0.301614
-0.100533
60.4672
60.4662
60.4788
60.5016
60.5331
60.5713
60.6203
60.6556
60.732
60.7417
60.8316
60.8401
60.8809
-1.69383
-1.58728
-1.63228
-1.37823
-1.3183
-1.12529
-0.963557
-0.790954
-0.615412
-0.438976
-0.262989
-0.0875074
60.4606
60.4645
60.4781
60.501
60.5326
60.5708
60.6199
60.6555
60.7317
60.7433
60.8278
60.8394
60.8818
-1.69465
-1.58845
-1.63413
-1.37966
-1.31972
-1.12654
-0.964592
-0.791807
-0.616075
-0.439447
-0.26327
-0.0876015
60.4582
60.4628
60.4768
60.4997
60.5314
60.5696
60.6187
60.6548
60.7309
60.744
60.8274
60.8397
60.8833
-1.69767
-1.59209
-1.63779
-1.38281
-1.32264
-1.12905
-0.966716
-0.793545
-0.617423
-0.440408
-0.263845
-0.0877927
60.4544
60.4604
60.4748
60.4978
60.5295
60.5678
60.6169
60.6536
60.7296
60.7445
60.8262
60.8403
60.8848
-1.70275
-1.59739
-1.64321
-1.38751
-1.32699
-1.13279
-0.969891
-0.796141
-0.619438
-0.441844
-0.264705
-0.0880791
60.451
60.4576
60.4722
60.4953
60.5269
60.5653
60.6144
60.6518
60.7277
60.7447
60.8251
60.8411
60.8863
-1.70977
-1.6046
-1.65033
-1.39374
-1.33274
-1.13771
-0.974079
-0.799566
-0.622097
-0.443739
-0.26584
-0.0884572
60.4475
60.4544
60.4692
60.4923
60.5239
60.5623
60.6114
60.6495
60.7254
60.7447
60.8239
60.842
60.8878
-1.71858
-1.61342
-1.65902
-1.40138
-1.33978
-1.14375
-0.979225
-0.803775
-0.625366
-0.446069
-0.267237
-0.0889226
60.4439
60.451
60.4658
60.4888
60.5202
60.5586
60.6077
60.6467
60.7225
60.7442
60.8224
60.8429
60.8893
-1.72903
-1.62383
-1.66918
-1.41035
-1.34803
-1.15083
-0.985261
-0.808716
-0.629204
-0.448807
-0.268878
-0.0894694
60.4402
60.4473
60.4621
60.4849
60.5161
60.5544
60.6034
60.6432
60.7191
60.7432
60.8205
60.8438
60.8907
-1.74094
-1.63557
-1.68064
-1.4205
-1.35737
-1.15885
-0.992107
-0.814322
-0.633561
-0.451915
-0.270743
-0.0900906
60.4364
60.4434
60.458
60.4806
60.5116
60.5498
60.5986
60.6393
60.7152
60.7416
60.8182
60.8445
60.892
-1.75412
-1.64851
-1.69325
-1.4317
-1.36766
-1.16771
-0.999668
-0.820518
-0.638379
-0.455353
-0.272805
-0.0907781
60.4325
60.4394
60.4538
60.4761
60.5068
60.5447
60.5933
60.6347
60.7108
60.7395
60.8153
60.845
60.8932
-1.76835
-1.66242
-1.70679
-1.44376
-1.37876
-1.17727
-1.00784
-0.827217
-0.64359
-0.459074
-0.275037
-0.0915225
60.4285
60.4353
60.4494
60.4713
60.5016
60.5392
60.5876
60.6297
60.7058
60.7367
60.8119
60.8449
60.894
-1.78339
-1.67709
-1.72106
-1.4565
-1.3905
-1.18739
-1.0165
-0.834323
-0.649121
-0.463023
-0.277408
-0.0923132
60.4245
60.4311
60.4449
60.4664
60.4963
60.5335
60.5815
60.6242
60.7004
60.7333
60.8079
60.8444
60.8946
-1.799
-1.69227
-1.73584
-1.46972
-1.40269
-1.19792
-1.02551
-0.841729
-0.654889
-0.467144
-0.279882
-0.0931387
60.4206
60.427
60.4405
60.4615
60.4908
60.5275
60.5751
60.6183
60.6946
60.7292
60.8035
60.8433
60.8948
-1.81493
-1.70771
-1.75089
-1.48322
-1.41516
-1.2087
-1.03475
-0.849322
-0.660805
-0.471373
-0.282422
-0.0939864
60.4168
60.423
60.436
60.4566
60.4853
60.5215
60.5686
60.6122
60.6886
60.7246
60.7988
60.8419
60.895
-1.8309
-1.72317
-1.76596
-1.49677
-1.42769
-1.21955
-1.04406
-0.856982
-0.666778
-0.475644
-0.284988
-0.0948431
60.4132
60.4191
60.4318
60.4518
60.4798
60.5155
60.5621
60.606
60.6824
60.7197
60.7942
60.8404
60.8952
-1.84668
-1.7384
-1.78081
-1.51016
-1.44008
-1.2303
-1.0533
-0.864586
-0.672711
-0.479889
-0.287538
-0.095695
60.4099
60.4155
60.4277
60.4471
60.4746
60.5096
60.5556
60.5998
60.6762
60.7146
60.7896
60.839
60.8957
-1.862
-1.75314
-1.79519
-1.52316
-1.45213
-1.24076
-1.0623
-0.872007
-0.678505
-0.484036
-0.290032
-0.096528
60.4068
60.4122
60.4239
60.4428
60.4695
60.504
60.5494
60.5938
60.6702
60.7096
60.7854
60.8378
60.8966
-1.87661
-1.76718
-1.80889
-1.53557
-1.46365
-1.25078
-1.07093
-0.879121
-0.684063
-0.488016
-0.292425
-0.0973279
60.4041
60.4092
60.4205
60.4387
60.4649
60.4987
60.5435
60.588
60.6644
60.7048
60.7817
60.8369
60.898
-1.8903
-1.78027
-1.82166
-1.54718
-1.47443
-1.26017
-1.07902
-0.885806
-0.689289
-0.491759
-0.294677
-0.0980808
60.4019
60.4067
60.4174
60.4351
60.4606
60.4938
60.5381
60.5827
60.6591
60.7003
60.7783
60.8362
60.8996
-1.90285
-1.79224
-1.83331
-1.55781
-1.4843
-1.26878
-1.08645
-0.891944
-0.69409
-0.4952
-0.296747
-0.0987732
60.4002
60.4046
60.4148
60.4319
60.4568
60.4895
60.5333
60.578
60.6543
60.6962
60.7754
60.8355
60.9011
-1.91407
-1.80287
-1.84364
-1.56726
-1.49309
-1.27646
-1.09309
-0.897428
-0.698382
-0.498277
-0.2986
-0.0993928
60.3992
60.403
60.4126
60.4292
60.4536
60.4858
60.5291
60.5739
60.6501
60.6925
60.7727
60.8347
60.9023
-1.9238
-1.81205
-1.85251
-1.57542
-1.50066
-1.28308
-1.0988
-0.90216
-0.702087
-0.500934
-0.300199
-0.0999281
60.3987
60.4019
60.4109
60.4271
60.451
60.4827
60.5257
60.5705
60.6466
60.6894
60.7701
60.8336
60.9028
-1.93191
-1.81959
-1.85975
-1.58211
-1.50687
-1.28851
-1.10351
-0.906054
-0.705137
-0.503122
-0.301517
-0.100369
60.4
60.4015
60.4097
60.4254
60.449
60.4804
60.523
60.5679
60.6438
60.6869
60.7678
60.8321
60.9024
-1.93829
-1.82551
-1.86527
-1.58727
-1.51163
-1.29267
-1.10712
-0.909041
-0.707477
-0.504802
-0.302529
-0.100707
60.4
60.401
60.4088
60.4244
60.4477
60.4789
60.5212
60.5661
60.6418
60.6852
60.7655
60.8305
60.9014
-1.94285
-1.82942
-1.86898
-1.59076
-1.51485
-1.29548
-1.10956
-0.911066
-0.709063
-0.50594
-0.303214
-0.100937
60.4056
60.4017
60.4085
60.4239
60.4471
60.4782
60.5204
60.5653
60.6407
60.6847
60.7642
60.8263
60.9
-1.94548
-1.832
-1.87082
-1.59264
-1.51651
-1.29688
-1.11081
-0.912095
-0.709869
-0.506518
-0.303563
-0.101053
60.4562
60.4555
60.468
60.4905
60.5215
60.5592
60.6076
60.6431
60.7186
60.7299
60.8181
60.8287
60.8699
-1.72607
-1.617
-1.65769
-1.39838
-1.33225
-1.13571
-0.969319
-0.793784
-0.616266
-0.438738
-0.262399
-0.0871435
60.4496
60.4538
60.4673
60.4898
60.521
60.5587
60.6071
60.6429
60.7182
60.7314
60.8142
60.828
60.8708
-1.72701
-1.61832
-1.65968
-1.39993
-1.33377
-1.13705
-0.97042
-0.794688
-0.616967
-0.439235
-0.262695
-0.0872419
60.4472
60.4521
60.4659
60.4885
60.5196
60.5574
60.6058
60.642
60.7172
60.7318
60.8135
60.8279
60.8721
-1.73032
-1.62227
-1.66363
-1.40332
-1.3369
-1.13973
-0.972679
-0.796531
-0.618394
-0.44025
-0.263301
-0.0874435
60.4434
60.4496
60.4639
60.4865
60.5176
60.5554
60.6038
60.6404
60.7155
60.7318
60.8117
60.8281
60.8732
-1.73585
-1.62803
-1.66949
-1.40837
-1.34156
-1.14372
-0.976058
-0.799288
-0.62053
-0.441769
-0.264211
-0.0877459
60.4399
60.4467
60.4613
60.4839
60.515
60.5527
60.601
60.6382
60.7131
60.7314
60.8098
60.8282
60.874
-1.74348
-1.63585
-1.67719
-1.41507
-1.34772
-1.14898
-0.980518
-0.802926
-0.623349
-0.443776
-0.265412
-0.0881458
60.4364
60.4435
60.4582
60.4808
60.5117
60.5493
60.5975
60.6354
60.7101
60.7304
60.8075
60.8281
60.8745
-1.75303
-1.64543
-1.6866
-1.4233
-1.35527
-1.15544
-0.986004
-0.807403
-0.626819
-0.446247
-0.266892
-0.0886386
60.4328
60.44
60.4547
60.4771
60.5078
60.5453
60.5933
60.6318
60.7064
60.7287
60.8045
60.8276
60.8746
-1.76436
-1.6567
-1.6976
-1.43297
-1.36413
-1.16302
-0.992447
-0.812664
-0.630899
-0.449154
-0.268633
-0.0892185
60.429
60.4362
60.4508
60.473
60.5035
60.5407
60.5885
60.6275
60.7019
60.7262
60.8007
60.8267
60.874
-1.77728
-1.66944
-1.71001
-1.44391
-1.37417
-1.17162
-0.999763
-0.818642
-0.635537
-0.452458
-0.270614
-0.0898783
60.4252
60.4323
60.4466
60.4686
60.4986
60.5356
60.5829
60.6224
60.6966
60.7227
60.7958
60.825
60.8727
-1.79156
-1.68347
-1.72367
-1.45599
-1.38525
-1.18112
-1.00785
-0.825259
-0.640673
-0.45612
-0.272809
-0.0906097
60.4212
60.4281
60.4423
60.4638
60.4934
60.5299
60.5768
60.6166
60.6905
60.7181
60.7895
60.8218
60.8702
-1.80697
-1.69855
-1.73835
-1.469
-1.3972
-1.1914
-1.01661
-0.832423
-0.646238
-0.460088
-0.275188
-0.0914029
60.4172
60.4239
60.4377
60.4588