/*--------------------------------*- C++ -*----------------------------------*\
  =========                 |
  \\      /  F ield         | OpenFOAM: The Open Source CFD Toolbox
   \\    /   O peration     | Website:  https://openfoam.org
    \\  /    A nd           | Version:  11
     \\/     M anipulation  |
\*---------------------------------------------------------------------------*/
FoamFile
{
    format      ascii;
    class       volScalarField;
    location    "5";
    object      k;
}
// * * * * * * * * * * * * * * * * * * * * * * * * * * * * * * * * * * * * * //

dimensions      [0 2 -2 0 0 0 0];

internalField   nonuniform List<scalar> 
17196
(
0.00532038
0.00286499
0.0032795
0.00700663
0.00850559
0.010043
0.0120941
0.0139714
0.0161429
0.0176876
0.0190535
0.0199726
0.0210311
0.0174954
0.0177502
0.0188193
0.0169696
0.0223272
0.0251093
0.0280306
0.0305911
0.0357548
0.0554818
0.0755499
0.0773094
0.00638178
0.00292675
0.00521758
0.00785603
0.00841354
0.0088436
0.00964644
0.0105816
0.0115836
0.0125562
0.0134446
0.0143185
0.0155749
0.0161053
0.0172443
0.0168546
0.016997
0.0236079
0.0299402
0.0335162
0.0348644
0.0392901
0.0605497
0.0974446
0.103985
0.00769874
0.00485812
0.00677851
0.00795018
0.00812862
0.00872321
0.00953612
0.01057
0.0114909
0.0125135
0.0131891
0.0143817
0.0153622
0.016477
0.0171351
0.0183937
0.0187289
0.0294994
0.0375877
0.0371648
0.046786
0.0291123
0.0454605
0.0723037
0.0795886
0.00869247
0.00619653
0.00781941
0.00834916
0.00828952
0.00869449
0.00971059
0.0107659
0.0117908
0.0127364
0.0135656
0.0146591
0.0154226
0.0166137
0.0173109
0.0184063
0.0191855
0.0250481
0.0375219
0.0429484
0.0470261
0.0467693
0.026923
0.0432177
0.0571829
0.00931337
0.00653078
0.00818434
0.00860435
0.0084698
0.00872435
0.00980826
0.0108348
0.0119906
0.0128505
0.0137159
0.0146169
0.0156674
0.0166552
0.0174604
0.0186906
0.0202025
0.0224374
0.0275628
0.024946
0.0392765
0.046332
0.0277045
0.0339288
0.0376641
0.00967644
0.0083436
0.0087571
0.00892617
0.00877983
0.00893845
0.00978038
0.0109056
0.0120569
0.0128939
0.0138777
0.0147689
0.0158841
0.0169789
0.0181992
0.0190772
0.0200553
0.0231559
0.0259812
0.0244321
0.0241093
0.031874
0.0271687
0.0242892
0.0166157
0.00947717
0.00884377
0.00895408
0.00910401
0.00911807
0.00915878
0.00985268
0.0110648
0.0120572
0.0128267
0.0138079
0.0145835
0.0156639
0.0167472
0.0176222
0.0186713
0.0202628
0.0217718
0.0232105
0.0190093
0.0200935
0.020472
0.0193279
0.0176749
0.0142473
0.00933471
0.00936373
0.00983539
0.00918895
0.00893199
0.00912244
0.0099933
0.0111259
0.0120053
0.0128693
0.0135574
0.0145545
0.0153727
0.0167225
0.0173706
0.0186142
0.0194517
0.0200841
0.0220347
0.0207022
0.0195911
0.0184256
0.0162052
0.015377
0.0122836
0.00940196
0.0105232
0.0113488
0.010036
0.00957203
0.00948709
0.0100964
0.011118
0.0119079
0.0127337
0.0134407
0.0145098
0.015256
0.0163177
0.0171767
0.0180636
0.018566
0.019222
0.0209851
0.0207647
0.0202962
0.0191683
0.0160581
0.0125355
0.00815609
0.00967014
0.0116765
0.0125044
0.0109333
0.0104912
0.00997461
0.0103303
0.0112408
0.011908
0.0126723
0.0134156
0.0143135
0.0151309
0.0159021
0.0165885
0.0175334
0.0178796
0.0199086
0.0197039
0.0198839
0.020759
0.0202611
0.0186826
0.0138408
0.00840012
0.00834906
0.0120378
0.0128551
0.0111855
0.0115005
0.0103869
0.0104608
0.0112127
0.0117434
0.0125418
0.0133515
0.0141815
0.0148462
0.0154308
0.0162877
0.0175762
0.0183363
0.0199132
0.0192817
0.0192099
0.0201364
0.0200837
0.0199808
0.0166182
0.00851025
0.00985573
0.0125148
0.0126245
0.0106719
0.0115982
0.0107339
0.0106848
0.0111437
0.0116765
0.0124528
0.0132789
0.0137941
0.0143385
0.0151545
0.0161022
0.0178012
0.0199269
0.0199028
0.0202243
0.0186421
0.0199568
0.0198623
0.0199756
0.0195109
0.0146476
0.00865285
0.0126938
0.0135216
0.0113649
0.0116958
0.0108833
0.0105488
0.0109649
0.0116601
0.012259
0.0129343
0.0133605
0.014299
0.0152584
0.0161162
0.018943
0.0218666
0.0212342
0.02182
0.0207649
0.0195865
0.0197538
0.0191017
0.0186701
0.0196293
0.00986511
0.011188
0.0112792
0.0101965
0.00994165
0.00975312
0.0102745
0.0108752
0.0116012
0.0120504
0.012767
0.013292
0.014384
0.0157881
0.0170957
0.0211383
0.0248749
0.0222933
0.0226357
0.0189663
0.0190096
0.0178936
0.0200174
0.0187281
0.0207948
0.0106933
0.01239
0.0118307
0.0106999
0.0104512
0.00982549
0.010284
0.0106326
0.0113631
0.0119234
0.0126717
0.0132161
0.014735
0.0165473
0.0205585
0.0284303
0.0289439
0.0238953
0.0229237
0.0205479
0.0204118
0.019265
0.0202788
0.0187718
0.021494
0.0109948
0.0108012
0.00879588
0.00908211
0.00914977
0.00919495
0.00978211
0.0103881
0.0112406
0.0118232
0.0125841
0.0132776
0.0163417
0.0212676
0.0274282
0.040625
0.0357794
0.026727
0.0247873
0.0219273
0.0215537
0.0195671
0.0201239
0.0185844
0.0217794
0.0107453
0.0100585
0.0097794
0.00899542
0.00928652
0.00911269
0.00939468
0.0101902
0.0110209
0.0115448
0.012627
0.0138452
0.0205169
0.028557
0.0380398
0.0580602
0.0408712
0.0320038
0.0251237
0.0233529
0.0234634
0.0214701
0.0198613
0.021272
0.0220291
0.00921358
0.00913914
0.00954365
0.00893576
0.00944887
0.0089836
0.00914644
0.00994476
0.0108596
0.0113972
0.0128491
0.0147814
0.0214238
0.0401058
0.0580308
0.0763882
0.046842
0.0375785
0.0306511
0.0260473
0.0254672
0.0242297
0.0220673
0.0231683
0.0224913
0.00903529
0.00839291
0.0101506
0.0104568
0.0103788
0.00904896
0.00898298
0.00973467
0.010632
0.0113914
0.0128865
0.0162315
0.0251232
0.0635794
0.0821921
0.082994
0.0616173
0.046163
0.0274129
0.0290043
0.0249299
0.0268759
0.0233171
0.0247563
0.0242313
0.00841661
0.00900666
0.0102862
0.00892834
0.00916346
0.00848531
0.00848489
0.00929323
0.010297
0.0113552
0.0129851
0.0175419
0.0259749
0.065185
0.0811943
0.0811373
0.0817464
0.0613026
0.0410274
0.0345334
0.0300174
0.0288182
0.0265181
0.0249101
0.0239863
0.0077549
0.00779712
0.00875666
0.00948491
0.00860416
0.0078536
0.00815225
0.0088481
0.0100292
0.0111129
0.012207
0.0182156
0.019786
0.0782533
0.115331
0.117209
0.0936733
0.0725226
0.0527927
0.0312037
0.0261428
0.0245992
0.0237016
0.0206207
0.0187064
0.00793401
0.00611877
0.00706573
0.00820417
0.00742617
0.00711442
0.00757369
0.00823403
0.00937791
0.0111817
0.0122498
0.01786
0.0262724
0.0457631
0.101652
0.095267
0.0880181
0.074536
0.0545293
0.0384452
0.037321
0.0336412
0.0261552
0.0218676
0.0167183
0.0083344
0.00566336
0.00615168
0.00574318
0.0061145
0.00608117
0.00668327
0.00749948
0.00944296
0.0115926
0.0148019
0.0134406
0.0312085
0.0483003
0.0916215
0.104849
0.105496
0.0823275
0.0628133
0.053369
0.0463882
0.0350571
0.0256757
0.0137167
0.0103553
0.00949276
0.00560968
0.00543507
0.00517448
0.00554653
0.00558822
0.00704349
0.00871207
0.0157311
0.0223397
0.0239796
0.0322447
0.0610131
0.0677398
0.103206
0.12034
0.0896245
0.0957277
0.081964
0.0678794
0.0552677
0.0409047
0.0204696
0.0109474
0.0094966
0.00971886
0.00678233
0.00685889
0.00819862
0.0111583
0.0139445
0.0168911
0.0158173
0.0386238
0.044077
0.0445108
0.0630816
0.0564192
0.0390207
0.0436923
0.0442677
0.04678
0.047071
0.0442655
0.0427114
0.0392725
0.0349171
0.0277057
0.0120079
0.0101048
0.00698308
0.00572589
0.00558899
0.00746455
0.00926473
0.0106422
0.0129216
0.0152044
0.0178938
0.0201818
0.0224252
0.0241477
0.0262543
0.0277643
0.0301616
0.0305303
0.0283
0.027547
0.0319491
0.0303467
0.0258905
0.0363587
0.0787102
0.0931517
0.0819639
0.00578736
0.00474383
0.00689284
0.00763159
0.00740742
0.0070826
0.00726204
0.00795071
0.00896905
0.010209
0.0123874
0.0140574
0.0162253
0.0190893
0.0228145
0.0286889
0.0364752
0.04084
0.0732119
0.082702
0.0748405
0.0764588
0.12444
0.14773
0.113767
0.00531691
0.00384492
0.00578194
0.00570999
0.00550103
0.00548055
0.00599494
0.00710737
0.0083613
0.00956839
0.01059
0.0125844
0.014888
0.0174871
0.0194838
0.0228479
0.0310189
0.033662
0.0768971
0.0951743
0.118697
0.0940621
0.0941244
0.117856
0.0939132
0.00469045
0.0042585
0.00606819
0.00561591
0.00544361
0.00555198
0.00609232
0.00767855
0.00866154
0.0100503
0.0108446
0.0125415
0.0146717
0.0164548
0.0198431
0.022075
0.0342516
0.039472
0.0476718
0.0841729
0.114077
0.0947161
0.0719926
0.0758866
0.0696547
0.00374683
0.00519042
0.00647429
0.00599899
0.00618373
0.00682823
0.00805734
0.00947132
0.0104536
0.0112044
0.0120012
0.0139248
0.0155306
0.0171485
0.0194382
0.0229648
0.0311213
0.0316332
0.0347456
0.0734514
0.103709
0.101992
0.0922317
0.0615666
0.0605221
0.00345096
0.00609673
0.00678864
0.0068259
0.00718994
0.00796012
0.00918454
0.0105318
0.0112296
0.0121514
0.0135159
0.015103
0.0161698
0.0181236
0.0185748
0.0275974
0.0271255
0.027425
0.028639
0.0299492
0.0876479
0.083455
0.057576
0.0541962
0.0641082
0.00367139
0.00758923
0.00845418
0.00815984
0.00824896
0.00894589
0.0103042
0.0116393
0.0125957
0.0138062
0.0151832
0.0159594
0.0173101
0.0192946
0.0214183
0.0259616
0.0253599
0.0210638
0.0243573
0.0331493
0.0508909
0.089509
0.0573925
0.0212142
0.0272701
0.00484223
0.00937359
0.00896296
0.00890469
0.00926954
0.0102111
0.011683
0.0134787
0.0147291
0.0158785
0.0170599
0.0181153
0.0201457
0.0236972
0.0238228
0.0226536
0.027089
0.0219195
0.0234479
0.0248718
0.0293905
0.0440504
0.0666861
0.0338598
0.0176771
0.00660762
0.0103861
0.00965322
0.0102157
0.0106001
0.0122637
0.0137488
0.01616
0.0174887
0.018557
0.0208674
0.0226534
0.0267478
0.0258293
0.0256511
0.0261168
0.0228264
0.0232979
0.0240129
0.0223653
0.0253918
0.0310608
0.0455382
0.0493151
0.0190466
0.00784229
0.0113221
0.0110838
0.0122875
0.0126279
0.0151561
0.0177221
0.0200797
0.0212695
0.0226772
0.0280261
0.0293073
0.0340199
0.0327254
0.0331995
0.0272678
0.0239304
0.0238782
0.0223613
0.0201509
0.0208315
0.0211791
0.0260508
0.0329054
0.0539307
0.00868593
0.012094
0.0135435
0.0137533
0.0151191
0.0189337
0.0228594
0.0249424
0.0254373
0.0282319
0.0414517
0.038296
0.044262
0.0452878
0.0472464
0.0351822
0.0278288
0.0228817
0.0234788
0.022025
0.0186135
0.0167214
0.0191713
0.0194209
0.0295845
0.00923226
0.013634
0.0168336
0.0160597
0.0177505
0.0232749
0.0285286
0.0294091
0.0310159
0.0371155
0.0506837
0.0478025
0.058526
0.0612488
0.0564342
0.0435356
0.0406428
0.0294418
0.0240545
0.0204373
0.019272
0.0192364
0.0180264
0.0194344
0.0187108
0.0096076
0.0157833
0.0164153
0.016207
0.020286
0.0291451
0.033549
0.0348439
0.0381299
0.0451422
0.0483705
0.0555231
0.0792328
0.0904372
0.0658562
0.0505727
0.0502582
0.0372782
0.0317554
0.0282724
0.0236779
0.0212543
0.0216922
0.017085
0.017364
0.0100801
0.0144791
0.016711
0.0188516
0.0231731
0.0352077
0.0392139
0.0400386
0.0439632
0.0453411
0.0553779
0.07053
0.0966054
0.129251
0.0632144
0.0524905
0.0372767
0.0386666
0.0338439
0.0310588
0.0284237
0.0266261
0.0283155
0.0248095
0.0227148
0.0109232
0.0140891
0.0133028
0.015022
0.0277153
0.03409
0.035071
0.0334056
0.0340484
0.0421521
0.0580761
0.0880863
0.118674
0.155321
0.0795172
0.0546289
0.0358039
0.0259022
0.0254112
0.0336035
0.0309868
0.0305065
0.033127
0.0256772
0.024403
0.0123399
0.0132687
0.0128022
0.0146247
0.0229856
0.0297483
0.0326542
0.0318882
0.0343126
0.0352161
0.0728307
0.0986844
0.143569
0.15928
0.0968385
0.0659278
0.0344923
0.0247426
0.0225211
0.0235289
0.0319393
0.0319063
0.038832
0.0280743
0.0281947
0.0123831
0.0121401
0.0110835
0.015328
0.0216987
0.0286898
0.024646
0.0293498
0.0299098
0.0390702
0.0685489
0.0791997
0.189741
0.170468
0.146944
0.0729224
0.034774
0.0228569
0.0217956
0.0223631
0.0260827
0.0337955
0.0281657
0.0278775
0.0309805
0.0095132
0.0108076
0.0110291
0.0147238
0.0183612
0.0289259
0.0301025
0.0262384
0.0213908
0.0346731
0.0714029
0.0980962
0.205598
0.196455
0.242666
0.0780946
0.0410205
0.0264899
0.0229065
0.0228178
0.0253253
0.0305132
0.0369163
0.0298893
0.0311681
0.00871171
0.0118748
0.0109305
0.0149638
0.0238859
0.0199681
0.0270749
0.0205783
0.0193527
0.0316559
0.0665701
0.103438
0.228242
0.297255
0.348598
0.0956817
0.0552078
0.0388796
0.0296881
0.0258952
0.0287147
0.0329609
0.0395629
0.0290955
0.0185085
0.0084381
0.0103284
0.0125897
0.014477
0.0230148
0.0190202
0.0177388
0.0147195
0.0195057
0.0271261
0.0635837
0.131477
0.190239
0.340356
0.434327
0.130821
0.0701143
0.0502932
0.0378723
0.0327316
0.0324904
0.0342744
0.0340039
0.0251566
0.0151214
0.00692235
0.0077144
0.0113683
0.0153723
0.0179858
0.0161218
0.0156489
0.0150433
0.0163709
0.0169299
0.0557498
0.119321
0.271317
0.509817
0.414966
0.184437
0.0956485
0.0583094
0.0464869
0.0438306
0.0452219
0.0459524
0.0390498
0.0298093
0.0103336
0.00516432
0.00532606
0.0119773
0.0107596
0.0195565
0.0137957
0.0133892
0.0109916
0.0113942
0.0205792
0.0231371
0.109149
0.246141
0.506536
0.442272
0.207594
0.125349
0.0785803
0.0606388
0.0609759
0.0637741
0.0706251
0.0566564
0.0277957
0.00333432
0.00400963
0.00454301
0.00615865
0.00670344
0.00799314
0.00801218
0.00815551
0.00741146
0.011976
0.0145872
0.0249574
0.0436513
0.2048
0.465881
0.376578
0.246491
0.120349
0.100126
0.0853345
0.0843316
0.0826544
0.0768146
0.0489195
0.0191659
0.00660012
0.00315559
0.00346029
0.00426525
0.00545778
0.00593926
0.00661059
0.00919692
0.0101582
0.0170023
0.0249554
0.0391247
0.0772007
0.260676
0.173397
0.165863
0.137422
0.139087
0.114992
0.112718
0.0995966
0.0753861
0.0596946
0.0418174
0.0110345
0.00609219
0.00761543
0.00611708
0.00762494
0.00959465
0.0108356
0.0118903
0.0159065
0.0143275
0.0387506
0.0637808
0.0711026
0.0933366
0.0842406
0.0797453
0.0609827
0.0521722
0.0534223
0.0484361
0.0428058
0.0417298
0.0344392
0.0288039
0.0221777
0.0133217
0.0114122
0.00795283
0.00584494
0.00623401
0.00799933
0.0109368
0.0127281
0.016958
0.0192836
0.0221006
0.0251565
0.027626
0.0296892
0.0319502
0.0330602
0.0345926
0.037656
0.0397426
0.0446733
0.045523
0.0465384
0.0457805
0.0574694
0.0904061
0.107487
0.0761733
0.00499601
0.00424525
0.00640644
0.00794762
0.00769624
0.00718023
0.00732149
0.00773902
0.00869348
0.0097321
0.0106245
0.0113994
0.0122148
0.0131637
0.014837
0.016528
0.0215166
0.0265253
0.0397176
0.0575914
0.0765448
0.150468
0.221258
0.192855
0.0950734
0.00371877
0.00438842
0.00647613
0.00704988
0.00689568
0.00667402
0.00695379
0.00766499
0.00892138
0.0101776
0.0112067
0.0121235
0.0132289
0.015078
0.0164986
0.0172898
0.0201237
0.0214892
0.0287932
0.0364315
0.0493704
0.0661425
0.126991
0.135189
0.0944859
0.00323047
0.00609503
0.00793406
0.00748379
0.00810018
0.00814375
0.00867847
0.00968302
0.0104859
0.0115759
0.012411
0.0134345
0.0150374
0.0163071
0.0174888
0.0184341
0.021353
0.0222467
0.0259103
0.0296815
0.0423361
0.0486066
0.0543088
0.0802872
0.0768857
0.00324328
0.00804223
0.00896111
0.00964967
0.0104001
0.0117935
0.0125457
0.0132429
0.0134059
0.0138644
0.0144138
0.0157576
0.0165608
0.0175346
0.0186413
0.0206836
0.020356
0.0192795
0.0212477
0.0306262
0.0355367
0.0411832
0.0416855
0.0453573
0.0489777
0.00527513
0.0104324
0.0127523
0.013163
0.0141727
0.0152369
0.0159651
0.0160753
0.0160615
0.0171775
0.0183291
0.0192505
0.0192701
0.0223209
0.0226395
0.0223232
0.0196366
0.020808
0.0211264
0.0224842
0.0315207
0.0337927
0.0343721
0.0344849
0.0363149
0.00877695
0.0140447
0.0179843
0.015899
0.0177708
0.0198221
0.021263
0.0215337
0.0219767
0.0239473
0.025503
0.0250942
0.025575
0.0285072
0.027365
0.0250574
0.0211958
0.0176234
0.0171348
0.0195244
0.0239534
0.0320132
0.0336174
0.0404797
0.0298416
0.0113187
0.0183777
0.0215022
0.0177822
0.0211049
0.0263333
0.0301601
0.0297013
0.0340991
0.0363823
0.0369864
0.0348415
0.0355342
0.0376491
0.0318517
0.025998
0.0230667
0.0190295
0.0161946
0.016254
0.0173487
0.021954
0.0282256
0.0285022
0.0345666
0.0138269
0.0228385
0.020289
0.0200936
0.0252646
0.0318415
0.0413461
0.0418973
0.0523341
0.0528538
0.0562244
0.0512534
0.0576383
0.0473776
0.0346205
0.0294727
0.0260288
0.0203166
0.0198932
0.0167448
0.0188246
0.0211656
0.0256467
0.0298582
0.03077
0.0143375
0.0277243
0.0252654
0.0242611
0.0280971
0.039357
0.0537133
0.0531058
0.0679077
0.0687135
0.0712756
0.0640137
0.0637707
0.0503617
0.0425842
0.0339557
0.0276195
0.0219145
0.0208801
0.0202091
0.0195732
0.0165108
0.0184464
0.0168743
0.0286826
0.0151271
0.0271456
0.0217259
0.0292099
0.0306766
0.0445383
0.0625795
0.0633866
0.0701367
0.0728147
0.0745644
0.0675415
0.0661024
0.0503017
0.0395885
0.0373321
0.0334916
0.0274115
0.0250155
0.023984
0.0207271
0.0165298
0.0163879
0.014165
0.0172129
0.0162581
0.0248306
0.027179
0.0329055
0.0359919
0.0481206
0.0638241
0.0699683
0.0651584
0.0699644
0.0732767
0.0658217
0.059838
0.0432634
0.0331998
0.0262123
0.0321773
0.0306076
0.0278514
0.0276372
0.0244992
0.0213519
0.0181922
0.0169364
0.0169109
0.0172213
0.0300573
0.0217993
0.0283325
0.0416185
0.0512296
0.0525147
0.0700438
0.0641442
0.0738653
0.0728714
0.0623393
0.0569416
0.0373529
0.0238993
0.0187954
0.0188556
0.0222369
0.0287149
0.0273892
0.0293625
0.0324698
0.0323412
0.0294371
0.0225931
0.0181205
0.0292043
0.024856
0.0293204
0.0387345
0.050791
0.0672071
0.0802246
0.0749988
0.0797536
0.0786597
0.0606626
0.0526492
0.0280982
0.0152006
0.0140727
0.012397
0.0144927
0.0201887
0.025035
0.0275036
0.0302724
0.0311853
0.0269286
0.0252445
0.018714
0.0274127
0.0239767
0.0302546
0.0391401
0.0523338
0.0737547
0.091017
0.0852886
0.0911366
0.0838997
0.0577056
0.0492322
0.0232964
0.0137608
0.0143499
0.0142046
0.0117546
0.0121613
0.0161201
0.0192782
0.0202641
0.0194808
0.017006
0.0161326
0.0197263
0.0222937
0.019724
0.0287624
0.0370945
0.0487884
0.071496
0.0953318
0.0857043
0.105544
0.0943774
0.0676128
0.0559322
0.0200623
0.0131907
0.0141619
0.0151071
0.0130901
0.0121463
0.0111453
0.0127168
0.0146869
0.0134811
0.0138555
0.01538
0.0197843
0.0212897
0.0197007
0.0327557
0.0396516
0.0453532
0.0657647
0.10143
0.0782215
0.134175
0.110593
0.0723125
0.0574487
0.0235236
0.0146646
0.0139115
0.0140726
0.0137972
0.0119138
0.0105256
0.0111862
0.0124829
0.0113121
0.0107709
0.0107005
0.0162459
0.0184957
0.0202032
0.0350966
0.0463555
0.0607046
0.0811592
0.113839
0.108053
0.157428
0.145073
0.097116
0.0784145
0.0356853
0.0201608
0.017376
0.016914
0.0161315
0.0134358
0.0125445
0.0116456
0.0106415
0.00873752
0.00968569
0.00893651
0.0156114
0.0181804
0.0235093
0.0362019
0.0591738
0.0862635
0.0999084
0.115745
0.135981
0.202764
0.242128
0.143648
0.0892933
0.0581669
0.0319135
0.0278132
0.0227187
0.0197851
0.0168926
0.0154725
0.0135229
0.0117193
0.00879303
0.00637094
0.00703958
0.0139857
0.0159186
0.0275005
0.0464079
0.081338
0.100381
0.117223
0.112792
0.0972824
0.161927
0.318223
0.283042
0.107396
0.0660735
0.0266252
0.0248756
0.0204349
0.0164813
0.014298
0.0146628
0.0144917
0.0111002
0.00790725
0.00418598
0.00702181
0.0111016
0.0143372
0.0341521
0.0713205
0.105612
0.0944428
0.078631
0.11238
0.103766
0.182211
0.331557
0.483675
0.292588
0.10065
0.0350895
0.0144622
0.0138554
0.0129218
0.0132161
0.0122779
0.0150013
0.0109245
0.00596848
0.00371575
0.0062593
0.00821368
0.0122286
0.0237886
0.0511224
0.101732
0.0626978
0.0698558
0.047196
0.0483834
0.14906
0.243261
0.732153
0.384543
0.175441
0.0757334
0.0147949
0.0235225
0.0115457
0.0184906
0.0202017
0.0192945
0.0222407
0.00885786
0.00358387
0.00608328
0.00685292
0.00820335
0.0141853
0.0213686
0.0354897
0.0373675
0.0295505
0.0249504
0.0343379
0.0400796
0.0856663
0.71064
0.338463
0.246387
0.140485
0.0374885
0.0398644
0.0112409
0.0159606
0.0215301
0.0255041
0.0285455
0.0114682
0.00471701
0.00565213
0.00465709
0.0050013
0.00843406
0.00951502
0.0166358
0.0187914
0.0159241
0.013363
0.024839
0.0422676
0.0813061
0.383434
0.307032
0.148889
0.138404
0.112913
0.0677837
0.0412609
0.0444625
0.0505349
0.0406456
0.0312688
0.0173825
0.00958253
0.00636044
0.00747007
0.00769409
0.00888487
0.00941373
0.010314
0.0103686
0.0160245
0.00839163
0.0618053
0.142096
0.182398
0.215278
0.0606893
0.0519997
0.0565335
0.0573437
0.0496787
0.0471246
0.0418129
0.0402736
0.0355078
0.0312078
0.0239311
0.0133608
0.0111426
0.00815134
0.00498114
0.00660136
0.0096199
0.0124829
0.0176685
0.0226212
0.0263215
0.0290547
0.0312715
0.0341906
0.0360693
0.0380745
0.0415842
0.0426545
0.0457419
0.0544461
0.0551857
0.0525544
0.0529667
0.0554585
0.0865407
0.104079
0.114942
0.0806642
0.00446425
0.00513335
0.00767658
0.00822316
0.00813412
0.00824762
0.00861557
0.00911327
0.0097776
0.011148
0.0124925
0.0132732
0.0132076
0.0133128
0.0135895
0.0143956
0.0175615
0.024503
0.0431352
0.0827482
0.148233
0.237402
0.260717
0.221743
0.084048
0.0032329
0.00573371
0.00762926
0.00814821
0.00867571
0.00914814
0.00997823
0.0112337
0.0123114
0.0130154
0.0137943
0.0150911
0.0157668
0.0164164
0.0168707
0.0173129
0.0176146
0.0188948
0.0224796
0.03701
0.0711679
0.134617
0.152405
0.158256
0.0663857
0.00347691
0.0078787
0.0107005
0.0120604
0.0131742
0.0144014
0.0162395
0.0161577
0.0162226
0.0157773
0.0162873
0.0163369
0.0174171
0.0185477
0.0188506
0.0182509
0.0185732
0.0185582
0.0193278
0.0232919
0.0288525
0.0406309
0.074436
0.0873381
0.0704211
0.00633609
0.0102679
0.0147924
0.0188385
0.0196088
0.0216322
0.0255026
0.0214741
0.0213841
0.0193391
0.018872
0.0196155
0.020003
0.0227757
0.0207453
0.0182458
0.0168473
0.0170509
0.0178112
0.0179996
0.0226922
0.02354
0.0304523
0.0545653
0.0555761
0.00979048
0.0144268
0.022634
0.0233288
0.0253529
0.0290692
0.0269286
0.0254239
0.0248612
0.0233169
0.0257229
0.0253997
0.0309574
0.030257
0.0253182
0.0211455
0.0167745
0.0176067
0.0163329
0.0182383
0.0172265
0.0196453
0.0208832
0.0283868
0.0334337
0.0123897
0.0208904
0.0280668
0.0217687
0.0288566
0.0338822
0.0345497
0.0352908
0.0339622
0.0339901
0.0343094
0.0334912
0.04205
0.0383014
0.0311393
0.023736
0.0201067
0.0176929
0.0139285
0.0144261
0.0134185
0.0174708
0.0162686
0.019372
0.0232104
0.0175192
0.0275659
0.0280941
0.0254418
0.0330488
0.0402772
0.0427933
0.0454027
0.0466186
0.0463835
0.0486298
0.045614
0.0474703
0.0427918
0.0344784
0.0251929
0.021541
0.0190481
0.016063
0.0142538
0.012587
0.0151691
0.0162584
0.0144624
0.018039
0.0200269
0.0328993
0.0216929
0.0208392
0.0328145
0.0385233
0.0438537
0.047639
0.0506507
0.0511623
0.0530809
0.0499885
0.0539555
0.0404182
0.0377862
0.0296173
0.0234113
0.0211004
0.0183222
0.0163453
0.0127985
0.0151364
0.0162271
0.0157402
0.0165835
0.0206947
0.0374511
0.0196005
0.0196683
0.0236807
0.0295697
0.0353484
0.0412513
0.0462238
0.04703
0.0490003
0.0457396
0.0507367
0.038762
0.0355794
0.0310254
0.02861
0.0245624
0.0207316
0.017995
0.0157943
0.0147951
0.0131522
0.0131656
0.0153654
0.021632
0.0303421
0.0179938
0.0193889
0.020538
0.0244186
0.0280069
0.0353271
0.0411853
0.0415468
0.0413417
0.0380343
0.0379883
0.0315618
0.0286893
0.0304563
0.0307589
0.0265519
0.0241095
0.0209013
0.0159547
0.0140642
0.0137159
0.0122193
0.0126216
0.0223187
0.0342278
0.0181569
0.0188021
0.0187235
0.0223237
0.0253763
0.0319227
0.036566
0.0367614
0.0339793
0.0282097
0.0272093
0.0193305
0.0188917
0.0201183
0.023261
0.0222648
0.0214572
0.0197363
0.0156339
0.0139126
0.0116668
0.0128124
0.0123027
0.022374
0.0348014
0.0187192
0.0183065
0.0177713
0.0211996
0.02554
0.0316355
0.0347251
0.031878
0.0256161
0.0186525
0.0197849
0.015439
0.0149775
0.0155375
0.0198261
0.0211717
0.0172859
0.0173751
0.0186703
0.0144905
0.0155423
0.0160513
0.0195941
0.0228268
0.0291455
0.0189669
0.0172806
0.0186675
0.0213293
0.0250411
0.030399
0.0355287
0.0287387
0.0192727
0.0112221
0.0130336
0.0148302
0.0156395
0.0192872
0.0196118
0.0215773
0.015809
0.0146831
0.0146109
0.0167775
0.0173614
0.0171075
0.0149289
0.0231748
0.0283894
0.0204969
0.0186266
0.0191934
0.0220499
0.0277993
0.0333449
0.0376327
0.0320051
0.0171339
0.0104434
0.0111969
0.0156748
0.0180064
0.0191851
0.0173751
0.0214142
0.0159495
0.0158063
0.0148778
0.0148491
0.0134892
0.0127404
0.0129109
0.0233288
0.0240357
0.0206695
0.022673
0.0230975
0.0243112
0.0340915
0.041212
0.0480427
0.0416493
0.0269816
0.0113409
0.0105693
0.0123655
0.0142273
0.0156613
0.0155376
0.0197617
0.0145827
0.0149196
0.0123777
0.0120796
0.0109148
0.0090831
0.00777111
0.023531
0.0215409
0.0187963
0.0201757
0.0218076
0.0289043
0.0427926
0.0517699
0.0573912
0.0520514
0.0353337
0.0126782
0.00982471
0.0107696
0.0124225
0.0135276
0.0147235
0.0190546
0.0148986
0.0127387
0.0117327
0.0110576
0.00969077
0.00649851
0.00575957
0.0199239
0.0229803
0.0162114
0.0203233
0.0271182
0.041161
0.0652607
0.0751054
0.0729409
0.0711325
0.0652157
0.0233006
0.0165007
0.0150758
0.0162754
0.0157218
0.017016
0.0187842
0.0159968
0.0146651
0.0127852
0.0105552
0.00841495
0.00446331
0.00544581
0.0192157
0.0252093
0.0249186
0.0306879
0.0413558
0.0651672
0.09779
0.113015
0.0965973
0.08724
0.0910523
0.0414104
0.0353572
0.0280202
0.0242947
0.0217699
0.0196384
0.0204739
0.0169527
0.0144374
0.0117131
0.00868877
0.00531542
0.00443589
0.00533178
0.0177989
0.0246066
0.0306626
0.0516095
0.0819343
0.122538
0.14425
0.171287
0.217114
0.104227
0.0968996
0.0750295
0.0352368
0.0351119
0.0284181
0.0261644
0.019642
0.0163235
0.0131242
0.0111722
0.00854192
0.00590237
0.00430477
0.00403494
0.00555128
0.0148794
0.0240119
0.0587107
0.0956186
0.15897
0.210086
0.21901
0.273333
0.341697
0.259039
0.128961
0.102905
0.0366646
0.0254144
0.0158516
0.0151631
0.0107584
0.00878495
0.00801
0.00698874
0.00571901
0.00402138
0.00341298
0.0036226
0.00591953
0.0123468
0.0211684
0.0710526
0.169485
0.265586
0.194381
0.197631
0.394854
0.379471
0.54911
0.22982
0.161643
0.0294396
0.0128781
0.00837236
0.00800685
0.00700981
0.00664721
0.00647229
0.00593697
0.00492169
0.00405457
0.00364651
0.00374345
0.00605889
0.00899745
0.0145718
0.039854
0.100882
0.208715
0.216742
0.155985
0.136925
0.209396
0.380671
0.55119
0.277196
0.0760223
0.0503902
0.00468029
0.00650035
0.0062824
0.006924
0.00782139
0.00664022
0.00751555
0.00453573
0.00588283
0.00469865
0.00661695
0.00690995
0.00765078
0.0131953
0.0193135
0.0646268
0.0585765
0.0395227
0.0421242
0.0427097
0.0366472
0.646271
0.471335
0.145864
0.108457
0.0871738
0.0244618
0.026449
0.0112896
0.0141441
0.0186938
0.0168042
0.0130312
0.00989208
0.00654295
0.00532872
0.00871764
0.0086931
0.0110099
0.0109125
0.0110612
0.0125656
0.0150849
0.0187404
0.0239063
0.151897
0.19586
0.0887781
0.0561475
0.0553645
0.0521643
0.0455393
0.0462889
0.0418837
0.0397324
0.0387842
0.0358488
0.0313507
0.0253652
0.0116355
0.010974
0.00790148
0.0057799
0.00730139
0.010639
0.0142163
0.0193793
0.0240271
0.0286546
0.0321028
0.0368209
0.0473935
0.0515521
0.0538424
0.0580144
0.0623868
0.063257
0.0613652
0.0627195
0.0611581
0.0601142
0.0884046
0.112477
0.124895
0.12375
0.106768
0.00449793
0.00623297
0.0092632
0.00940437
0.00957258
0.0100826
0.0127323
0.0153554
0.0165908
0.0171213
0.0165926
0.0169623
0.0177108
0.0186142
0.0201013
0.0207639
0.0228151
0.0312954
0.0637731
0.110307
0.17106
0.232963
0.265158
0.251101
0.0678769
0.00327379
0.00806424
0.0100905
0.0110353
0.0128586
0.0165177
0.0192056
0.0197021
0.0223798
0.0210385
0.0200696
0.0206698
0.0205731
0.0201741
0.0197232
0.0193138
0.0193821
0.0197737
0.0272957
0.0510529
0.0856448
0.112203
0.158546
0.18315
0.0309751
0.00504283
0.0106869
0.0143407
0.0165641
0.0207604
0.0275073
0.0291018
0.0263154
0.0269622
0.02573
0.0239709
0.0229469
0.022484
0.0217519
0.0203482
0.0187378
0.0183074
0.0186023
0.0192825
0.0233832
0.0309707
0.0423937
0.0720483
0.12912
0.0392858
0.00835095
0.0146597
0.0193443
0.0239783
0.0363673
0.0308351
0.0302142
0.0277061
0.0270056
0.0267092
0.0273715
0.024771
0.0220607
0.0222884
0.0190691
0.0170929
0.0162658
0.0164563
0.0167015
0.0163329
0.0184811
0.0225296
0.0294827
0.083515
0.0637218
0.0108519
0.0211949
0.0251232
0.0305348
0.0438424
0.0427812
0.0352026
0.0355874
0.0325247
0.032861
0.033369
0.0285517
0.0270275
0.0249353
0.020582
0.0174143
0.0146199
0.015124
0.0152392
0.0154251
0.0146339
0.0155597
0.0177301
0.0322773
0.0475287
0.0161012
0.0298505
0.0266354
0.0352575
0.0440085
0.0466716
0.0432241
0.0452432
0.0428385
0.0429008
0.0479732
0.0470185
0.0447895
0.0340216
0.025162
0.019172
0.0171861
0.0164818
0.0141171
0.014034
0.0124022
0.0130078
0.0132395
0.0173493
0.0255826
0.0221435
0.0362827
0.0243879
0.0322397
0.0379455
0.0407911
0.0443196
0.0458886
0.0478183
0.0458122
0.0450807
0.0493156
0.0523127
0.0416999
0.0283087
0.018917
0.0175235
0.0171229
0.0143223
0.0130358
0.0116057
0.0118897
0.0122838
0.0126452
0.016123
0.0263048
0.037995
0.0201017
0.0234095
0.0248123
0.0292538
0.0355223
0.0389548
0.0403811
0.0412725
0.0422559
0.0444513
0.0508061
0.036931
0.0336516
0.0235494
0.0210012
0.0183956
0.0151369
0.0141057
0.0118076
0.0120567
0.0118815
0.0120225
0.0131612
0.025164
0.0327185
0.0190327
0.0200396
0.0215547
0.0222997
0.0235129
0.0256459
0.0259473
0.0267181
0.0279192
0.0312783
0.034964
0.0300678
0.0285514
0.023726
0.0202313
0.0182748
0.0163118
0.0145563
0.0123034
0.012144
0.01143
0.0111984
0.0119305
0.0254777
0.0360406
0.0186206
0.019106
0.0199886
0.0205183
0.0209341
0.0208684
0.0205635
0.0204305
0.0205636
0.0246533
0.0267395
0.0227581
0.021305
0.023807
0.023184
0.0227454
0.0192007
0.0174621
0.0134914
0.0129389
0.0119411
0.0108569
0.0107401
0.0271029
0.0339058
0.0192063
0.0193685
0.0181937
0.019193
0.0194273
0.0200853
0.0165854
0.0166372
0.0158302
0.0162933
0.018021
0.0170693
0.0175979
0.0206209
0.028321
0.0245573
0.0181558
0.0166267
0.013899
0.0122409
0.0109679
0.010616
0.0107305
0.0232982
0.0380634
0.0206976
0.0217716
0.0190087
0.0192406
0.0202487
0.0215136
0.014226
0.0119865
0.0127877
0.0131372
0.0143893
0.014683
0.0194959
0.0264766
0.024876
0.0241438
0.0195184
0.0168352
0.0128199
0.0109767
0.0105055
0.0109782
0.0122266
0.0230745
0.0364643
0.0205246
0.0224215
0.0245981
0.0204752
0.0217499
0.0225377
0.015516
0.0108748
0.0111441
0.0127933
0.0128339
0.0146774
0.0187146
0.0253608
0.0180216
0.0203325
0.0192473
0.0168683
0.0109071
0.00916205
0.00958424
0.0111697
0.0131009
0.0257502
0.0352561
0.0248927
0.0253265
0.0273183
0.0219429
0.0229336
0.0221784
0.0209822
0.0117889
0.00966508
0.0108587
0.0126837
0.013918
0.0176847
0.0199068
0.0156
0.0171006
0.0168086
0.0167747
0.0105756
0.00898978
0.0100718
0.0121726
0.0220537
0.0250973
0.0325896
0.0229281
0.028877
0.0258791
0.0301233
0.0292419
0.0219489
0.0244014
0.0140278
0.0079249
0.00833873
0.0100612
0.0116021
0.0140247
0.0157394
0.0137268
0.0153667
0.0153317
0.0161392
0.0103161
0.00898694
0.0110396
0.0132255
0.0122878
0.0262851
0.0297466
0.0225864
0.0283284
0.0251255
0.0219979
0.0207766
0.02843
0.0296295
0.018725
0.00970524
0.0074217
0.00902193
0.0104727
0.01256
0.0140828
0.0144423
0.0154571
0.0150019
0.0153217
0.011616
0.0102116
0.0118676
0.00955816
0.00596472
0.0228491
0.0277207
0.0222267
0.0253753
0.023248
0.0246803
0.0251758
0.0333222
0.038177
0.026306
0.0182106
0.0114262
0.0124952
0.0140447
0.0158451
0.0166724
0.0184234
0.016554