/*--------------------------------*- C++ -*----------------------------------*\
  =========                 |
  \\      /  F ield         | OpenFOAM: The Open Source CFD Toolbox
   \\    /   O peration     | Website:  https://openfoam.org
    \\  /    A nd           | Version:  11
     \\/     M anipulation  |
\*---------------------------------------------------------------------------*/
FoamFile
{
    format      ascii;
    class       volScalarField;
    location    "5";
    object      nut;
}
// * * * * * * * * * * * * * * * * * * * * * * * * * * * * * * * * * * * * * //

dimensions      [0 2 -1 0 0 0 0];

internalField   nonuniform List<scalar> 
17196
(
0.0220472
0.0174689
0.0150368
0.0261439
0.016871
0.0148497
0.0156417
0.0172499
0.0200771
0.0229699
0.0265932
0.0310199
0.0382509
0.040874
0.0540514
0.100355
0.120636
0.0665497
0.0453353
0.182227
0.163122
0.501199
0.373981
0.20866
0.141322
0.0490425
0.0367936
0.0243808
0.0237438
0.0198762
0.0186414
0.0191425
0.0202772
0.0218012
0.0235268
0.0253886
0.0275758
0.0308956
0.032862
0.036283
0.032872
0.0435891
0.0653536
0.239334
0.136473
0.330186
0.29864
0.454635
0.384097
0.343318
0.0615302
0.0392918
0.0258513
0.0230106
0.0197986
0.0191982
0.0198222
0.0211991
0.0225602
0.0244
0.0259638
0.0291427
0.0327379
0.0377053
0.0426741
0.0504501
0.0553149
0.0876409
0.266468
0.136803
0.261493
0.204581
0.461248
0.403551
0.291439
0.092892
0.0386073
0.0265141
0.0229443
0.0199139
0.0193666
0.0205394
0.0219034
0.0233906
0.0250701
0.0270291
0.0302213
0.0336497
0.0391405
0.0445761
0.0526649
0.0617562
0.081716
0.179953
0.313936
0.211631
0.261133
0.371986
0.315615
0.205155
0.12712
0.0325167
0.0251509
0.0225171
0.0201964
0.0196154
0.020939
0.02219
0.0239847
0.0256321
0.0278636
0.0308941
0.0351536
0.0403254
0.0462473
0.0550427
0.0694362
0.0822575
0.126813
0.26348
0.243791
0.19982
0.168899
0.173476
0.156722
0.144765
0.0342674
0.0249939
0.0226394
0.0209218
0.0202618
0.0210404
0.0225482
0.0244932
0.0262723
0.0288885
0.0319386
0.0361722
0.0411543
0.04751
0.0546784
0.06505
0.0838238
0.104337
0.174195
0.217234
0.229961
0.177931
0.183786
0.0750106
0.122701
0.0315287
0.0242534
0.0226986
0.0218531
0.0210237
0.0215077
0.0233322
0.0251121
0.0268155
0.0293356
0.0317994
0.0353179
0.0393447
0.0435604
0.0493286
0.0587419
0.0702384
0.0749091
0.086899
0.148189
0.162
0.141841
0.11006
0.0671528
0.0908128
0.0304147
0.0258101
0.0228447
0.0217269
0.0213824
0.0223597
0.0241729
0.0257905
0.0275811
0.0291575
0.0315544
0.0337448
0.0374109
0.0398988
0.0443075
0.0488143
0.0545502
0.0622576
0.0708088
0.128528
0.107447
0.116505
0.094165
0.0872267
0.0754424
0.0328173
0.0293253
0.0251683
0.0238407
0.0229006
0.0233817
0.0250899
0.0264912
0.0279578
0.0291093
0.0310145
0.0322671
0.0343584
0.0362362
0.0383402
0.0399379
0.0428425
0.0488761
0.0480779
0.07358
0.133764
0.210129
0.0885672
0.18961
0.0715877
0.0353048
0.0321921
0.0278923
0.0269539
0.0250331
0.025017
0.02655
0.0275514
0.0285205
0.0291586
0.0299954
0.030703
0.0315275
0.0324062
0.0338859
0.0343566
0.0384857
0.0396914
0.0406317
0.0432207
0.0577571
0.122259
0.146759
0.0700197
0.0563944
0.0356812
0.0333406
0.0292367
0.0306353
0.0273486
0.0267904
0.0279429
0.028343
0.0288807
0.0290376
0.0291621
0.0291521
0.0293565
0.0304018
0.0324127
0.0335907
0.0365251
0.0358074
0.0374013
0.041055
0.0414766
0.0463104
0.0768245
0.0515301
0.061309
0.0369473
0.033281
0.0287207
0.0321494
0.029747
0.0290723
0.029322
0.0292673
0.0291963
0.0289519
0.0281608
0.0278354
0.0285314
0.0299231
0.0329766
0.0370256
0.0371805
0.0380246
0.0356427
0.039831
0.0426415
0.0442175
0.0444712
0.0538896
0.0515846
0.0377129
0.0364324
0.0316103
0.0337791
0.0316158
0.0301525
0.0301772
0.0301234
0.0292401
0.0285061
0.0275471
0.0281201
0.0293031
0.0308925
0.036683
0.0430782
0.0425129
0.0440915
0.0422062
0.0402224
0.0417658
0.0434143
0.0436198
0.0522406
0.0571772
0.0335802
0.0311523
0.029318
0.0297361
0.0293521
0.0303719
0.0308335
0.0306586
0.02933
0.0287695
0.0281727
0.0292554
0.0315432
0.034415
0.0435431
0.052931
0.0489256
0.0506897
0.0426506
0.0425839
0.0401697
0.0463306
0.046423
0.0588241
0.0611852
0.0375451
0.0333492
0.0315635
0.0319529
0.0301101
0.0309027
0.0305946
0.0305187
0.0296858
0.0295225
0.0292733
0.0314887
0.0347122
0.0436157
0.0624317
0.0666535
0.0572395
0.0564979
0.0517191
0.0511323
0.0476704
0.0506221
0.0483846
0.0650525
0.0627312
0.0329776
0.0251064
0.0271233
0.0281583
0.0281688
0.0292948
0.0298507
0.030447
0.0301183
0.0305661
0.031211
0.0373488
0.0476317
0.0623229
0.0968123
0.0906273
0.070712
0.0675802
0.0610441
0.0598962
0.0535509
0.0547959
0.0505576
0.0679283
0.0620196
0.0309316
0.0280114
0.0268591
0.0283365
0.0274146
0.0274943
0.028754
0.0297623
0.0299174
0.0319927
0.0348861
0.0512208
0.0703303
0.0954541
0.153647
0.115083
0.0930866
0.0739714
0.0697293
0.0705999
0.0633594
0.0577211
0.0604637
0.0715002
0.0540984
0.0284915
0.0272499
0.0263717
0.0281473
0.0260958
0.0257328
0.0271591
0.028883
0.0297399
0.0335932
0.0396054
0.0587351
0.110802
0.163912
0.225395
0.144908
0.118218
0.0963068
0.0817221
0.0788658
0.0754324
0.0674109
0.0696692
0.0797918
0.0543662
0.0267203
0.0287205
0.0300936
0.0296685
0.0249787
0.0239921
0.0254682
0.0275733
0.0295994
0.0341985
0.0451954
0.0739706
0.195275
0.261149
0.272046
0.207989
0.156374
0.0914435
0.0952902
0.0793994
0.0887118
0.0772668
0.0825298
0.102431
0.0514447
0.0296011
0.0287234
0.0245945
0.0246531
0.0219022
0.0212739
0.0230859
0.0257591
0.0289423
0.034235
0.0492922
0.0792252
0.215026
0.282914
0.288547
0.293443
0.217546
0.141723
0.116919
0.0995086
0.100892
0.0973923
0.0951628
0.113988
0.0543411
0.0268884
0.0241307
0.0246674
0.0214961
0.0188438
0.0191583
0.0208143
0.0239575
0.0271646
0.0308931
0.049713
0.0603114
0.266197
0.417738
0.418133
0.321742
0.242085
0.173458
0.103489
0.0882586
0.0882175
0.0874144
0.0709608
0.0537956
0.0697837
0.0230137
0.0196493
0.0204234
0.0172962
0.0159356
0.016741
0.0182939
0.0210458
0.0254605
0.0289318
0.0460458
0.0764584
0.145929
0.321358
0.276649
0.242424
0.206176
0.158483
0.121519
0.128095
0.120122
0.0734081
0.0473178
0.0321054
0.0882441
0.0242076
0.0180114
0.0143098
0.0138218
0.0130439
0.0140495
0.0156669
0.0196598
0.0242939
0.0301659
0.0263433
0.0609494
0.0963486
0.18507
0.213131
0.227113
0.197065
0.175553
0.181171
0.184668
0.117442
0.05566
0.0350566
0.0305244
0.112626
0.0273181
0.0174173
0.0135495
0.0127814
0.011796
0.0138617
0.0156441
0.0244036
0.0275613
0.0225768
0.0368453
0.088826
0.122618
0.214992
0.266394
0.219802
0.260611
0.253848
0.245121
0.212961
0.117958
0.060749
0.0503025
0.0450073
0.088805
0.0238892
0.013854
0.0122425
0.0143916
0.0173446
0.0222873
0.0243245
0.0712317
0.0760695
0.0579344
0.0815562
0.0882142
0.075103
0.101516
0.116379
0.125026
0.110036
0.088078
0.0768515
0.0730536
0.0812267
0.097697
0.0434865
0.0352731
0.0447322
0.0238091
0.0265957
0.0196884
0.0150383
0.0132713
0.013913
0.0150445
0.0168264
0.0184079
0.0201678
0.0217768
0.0242148
0.0268253
0.0314402
0.0357475
0.0408701
0.0462894
0.0689358
0.0988653
0.134957
0.182267
0.271242
0.199655
0.184878
0.0304648
0.0430667
0.0464045
0.0450157
0.0491175
0.0588657
0.0754272
0.0995617
0.127685
0.158722
0.193163
0.151745
0.1342
0.131916
0.127259
0.128552
0.178918
0.175015
0.401907
0.421833
0.325368
0.596508
1.04468
1.04964
0.697126
0.0203321
0.0271201
0.0302062
0.0332294
0.0384743
0.045531
0.0585677
0.0816214
0.108123
0.137779
0.162018
0.214485
0.278273
0.316422
0.3099
0.332463
0.409083
0.407298
0.663618
0.61106
0.72632
0.691602
0.720928
0.706186
0.555193
0.0162375
0.0196796
0.030071
0.0363363
0.0426899
0.0485099
0.0605645
0.0867721
0.110171
0.143907
0.166843
0.224802
0.264188
0.279419
0.356965
0.384595
0.512133
0.512515
0.464307
0.571274
0.634771
0.558063
0.721488
0.472302
0.389595
0.0122185
0.0196863
0.0330831
0.0406642
0.0501165
0.0593677
0.0785475
0.103766
0.13136
0.152321
0.180607
0.233036
0.24931
0.280863
0.319794
0.369307
0.501039
0.487394
0.487505
0.665281
0.597102
0.587615
0.759864
0.420199
0.503763
0.0107372
0.0224145
0.0353916
0.046087
0.0582993
0.0690534
0.0869879
0.114833
0.137545
0.16146
0.18948
0.225286
0.235337
0.248394
0.273734
0.393041
0.408434
0.491518
0.473361
0.476363
0.615091
0.450885
0.474836
0.368905
0.400894
0.0108024
0.0277167
0.045175
0.0559319
0.0665217
0.0777191
0.0965478
0.123549
0.145373
0.169397
0.186421
0.193447
0.210544
0.240434
0.280183
0.359633
0.393879
0.379003
0.405382
0.419826
0.492611
0.456433
0.259956
0.105478
0.0648569
0.0135055
0.0345171
0.0507989
0.0640581
0.0729267
0.0852906
0.106045
0.131112
0.147475
0.163954
0.181954
0.196876
0.228174
0.265613
0.281893
0.309764
0.413088
0.349691
0.418635
0.417772
0.427124
0.476618
0.323193
0.0920639
0.0311826
0.0167229
0.0392262
0.0575877
0.0729582
0.0849252
0.0987229
0.113409
0.13882
0.151298
0.166801
0.196165
0.216465
0.255821
0.250916
0.261444
0.312391
0.297364
0.312252
0.464575
0.455191
0.507184
0.503593
0.563125
0.221226
0.0334193
0.0191332
0.0446426
0.0672483
0.0899848
0.0946054
0.109388
0.128068
0.151239
0.160092
0.175877
0.224729
0.235868
0.283033
0.279714
0.309733
0.277594
0.263717
0.293371
0.306359
0.324778
0.357573
0.333184
0.359944
0.395692
0.338831
0.0205247
0.0503321
0.0819681
0.0951256
0.104812
0.125314
0.145763
0.159964
0.169148
0.186459
0.279228
0.258232
0.312414
0.323421
0.365558
0.276284
0.226007
0.202644
0.235679
0.300618
0.284946
0.256972
0.375855
0.359588
0.465886
0.0224234
0.0580905
0.106664
0.105607
0.116909
0.148655
0.174458
0.17715
0.175011
0.215107
0.291755
0.278887
0.34173
0.343731
0.342342
0.262286
0.241507
0.175103
0.157085
0.150194
0.167749
0.217998
0.287431
0.360605
0.42378
0.0226866
0.0689443
0.102022
0.102919
0.128235
0.177506
0.190544
0.177219
0.202155
0.223997
0.243006
0.299663
0.390293
0.408933
0.327095
0.239104
0.225956
0.169051
0.150435
0.152251
0.151059
0.183918
0.30845
0.32048
0.529119
0.0243819
0.0656701
0.105217
0.120881
0.13488
0.202652
0.200308
0.185932
0.213911
0.206473
0.263809
0.36057
0.416754
0.527306
0.271348
0.208484
0.147825
0.155092
0.132347
0.132476
0.138977
0.156571
0.220007
0.271766
0.478421
0.0265325
0.0652573
0.0845051
0.0944984
0.177497
0.187899
0.164615
0.159135
0.185949
0.191323
0.240288
0.401736
0.474505
0.604236
0.309747
0.203514
0.132178
0.0965981
0.0912036
0.124207
0.124519
0.144151
0.200076
0.20159
0.470548
0.0307137
0.0629246
0.0812802
0.0943513
0.137342
0.150153
0.165295
0.169444
0.177091
0.163072
0.299252
0.417743
0.549547
0.591118
0.368718
0.242654
0.127195
0.0951269
0.0826571
0.0837267
0.117408
0.131769
0.204545
0.188027
0.29385
0.0317017
0.057679
0.070212
0.0968496
0.126958
0.14558
0.125597
0.160694
0.147955
0.201028
0.288985
0.378575
0.704733
0.604465
0.544293
0.269385
0.125949
0.0844125
0.079451
0.0813908
0.0917902
0.128366
0.134189
0.168058
0.22049
0.0241105
0.0510591
0.0675782
0.0924658
0.103978
0.147842
0.157615
0.138014
0.110913
0.179528
0.316554
0.45089
0.795608
0.674042
0.869541
0.269024
0.144364
0.0911333
0.0823653
0.0776102
0.0882418
0.111306
0.165482
0.153908
0.118266
0.022073
0.0553062
0.0659149
0.0869928
0.132551
0.101156
0.152886
0.114369
0.114954
0.16898
0.318013
0.466675
0.895237
0.990525
1.14789
0.337771
0.188278
0.139963
0.106374
0.0871766
0.0997298
0.119095
0.158666
0.1066
0.035467
0.0211167
0.0452919
0.0710574
0.0816482
0.120391
0.102007
0.108793
0.0871596
0.1201
0.18159
0.383497
0.787461
0.779062
1.15854
1.33474
0.467503
0.240862
0.170775
0.12641
0.109801
0.117692
0.128461
0.126459
0.0755079
0.0218093
0.0175605
0.032186
0.0611404
0.083218
0.0919667
0.093726
0.0917965
0.0955335
0.113407
0.116933
0.352043
0.67146
1.15202
1.68083
1.30786
0.62967
0.319151
0.19339
0.159238
0.152399
0.170953
0.185246
0.156601
0.103265
0.0155934
0.0133761
0.0207203
0.0585376
0.0548468
0.106104
0.0828395
0.0866688
0.0854141
0.0978434
0.179359
0.188731
0.745098
1.1253
1.80131
1.56887
0.739318
0.463818
0.298589
0.228581
0.247321
0.283112
0.318143
0.241947
0.0910669
0.00620341
0.0107057
0.0172395
0.0281457
0.0337259
0.0430617
0.0497803
0.0600352
0.0633761
0.117274
0.148579
0.2457
0.323072
0.949241
1.29888
1.25199
0.97155
0.485191
0.39993
0.401034
0.453475
0.525123
0.489055
0.220957
0.0627637
0.0142366
0.00880155
0.0131716
0.0180725
0.0252305
0.0333155
0.0468613
0.083207
0.108116
0.14513
0.138989
0.164065
0.226532
0.54235
0.610439
0.758962
0.672323
0.690576
0.631778
0.569353
0.351274
0.234969
0.198489
0.251604
0.0405196
0.012072
0.0612294
0.0193878
0.0135207
0.0128943
0.0127183
0.0135003
0.0191047
0.0199304
0.0691604
0.153881
0.182752
0.192486
0.173387
0.172522
0.108984
0.0794171
0.0768434
0.0698168
0.0654972
0.0703149
0.0663294
0.0473089
0.0330623
0.0290324
0.0227956
0.0673373
0.0242754
0.0208386
0.0168853
0.0165596
0.0158155
0.0187333
0.0196974
0.0212733
0.0230154
0.0241847
0.0251415
0.0265615
0.0274091
0.0290641
0.0327685
0.0369053
0.0452129
0.0552798
0.0649603
0.0795712
0.138379
0.206969
0.17763
0.168289
0.0188346
0.0224379
0.0315059
0.0412184
0.0465246
0.051858
0.0614307
0.073394
0.0923292
0.109928
0.12466
0.138863
0.15346
0.179341
0.207808
0.218756
0.272629
0.292801
0.348382
0.4948
0.544953
0.818619
1.21087
0.981856
0.452639
0.0116444
0.0180991
0.0318214
0.0455293
0.0538406
0.0589234
0.0654196
0.0772271
0.0954276
0.113938
0.12822
0.141922
0.161294
0.197753
0.200851
0.203995
0.236464
0.229326
0.272052
0.303141
0.355647
0.402855
0.740587
0.640963
0.415583
0.00965371
0.0236049
0.0430329
0.0537881
0.0660387
0.0709078
0.0792997
0.0945633
0.108311
0.123361
0.136428
0.150631
0.178059
0.188932
0.181203
0.193489
0.225804
0.216072
0.229221
0.227076
0.289247
0.301915
0.309259
0.383673
0.349753
0.00986916
0.0314916
0.0541235
0.073791
0.0837944
0.0945444
0.106275
0.121897
0.132065
0.13396
0.142432
0.157803
0.165212
0.17769
0.170674
0.193325
0.192887
0.191524
0.201944
0.271231
0.27573
0.280148
0.246418
0.242993
0.259868
0.0140526
0.0433296
0.0849512
0.100348
0.109351
0.107499
0.125522
0.132504
0.139926
0.144902
0.159937
0.170365
0.167451
0.196298
0.187754
0.186613
0.168517
0.183371
0.189877
0.217885
0.277106
0.238317
0.233603
0.192472
0.188232
0.0209456
0.0636799
0.125394
0.123261
0.124079
0.127463
0.144984
0.150379
0.156131
0.17458
0.193209
0.193565
0.197518
0.220362
0.206328
0.187245
0.156735
0.138874
0.134889
0.167385
0.204473
0.231792
0.203513
0.229453
0.164031
0.0261636
0.0901504
0.155684
0.13233
0.14245
0.185678
0.202047
0.193797
0.222446
0.231874
0.230518
0.22086
0.238318
0.257742
0.216979
0.169674
0.156416
0.127653
0.117378
0.124136
0.153359
0.185545
0.216689
0.130204
0.176732
0.0308888
0.119122
0.148687
0.158885
0.185292
0.199596
0.249365
0.242886
0.294963
0.271221
0.296759
0.292349
0.348945
0.289389
0.204441
0.170184
0.152399
0.122751
0.134423
0.125318
0.156947
0.201665
0.2363
0.18906
0.13272
0.0330153
0.152625
0.182667
0.180213
0.185815
0.227541
0.302577
0.279652
0.350451
0.326088
0.353777
0.341624
0.347342
0.272897
0.226484
0.16893
0.135013
0.112693
0.11813
0.135361
0.164774
0.151558
0.177229
0.158512
0.237535
0.0355014
0.149385
0.160085
0.210569
0.196128
0.237612
0.328059
0.313221
0.348236
0.344529
0.362231
0.347611
0.332806
0.248302
0.187948
0.169754
0.1495
0.123573
0.119118
0.126196
0.132901
0.126265
0.1339
0.116035
0.158355
0.0396479
0.133773
0.19828
0.223365
0.22133
0.242321
0.305662
0.326861
0.302683
0.324795
0.346353
0.322901
0.285578
0.204993
0.1574
0.12171
0.143526
0.140565
0.127913
0.118659
0.112656
0.112693
0.108622
0.110576
0.12753
0.044691
0.165049
0.161508
0.185277
0.248348
0.257042
0.239132
0.311315
0.284481
0.332965
0.335034
0.295841
0.267223
0.176764
0.117139
0.0946235
0.0890871
0.101229
0.132437
0.118471
0.119349
0.127762
0.13957
0.149583
0.140009
0.0498483
0.166727
0.18407
0.187404
0.21757
0.251127
0.299457
0.347174
0.321072
0.349081
0.348222
0.275316
0.241938
0.131337
0.0800347
0.0779542
0.0688845
0.0721658
0.0895619
0.114215
0.108846
0.128974
0.133071
0.105968
0.0895357
0.0496868
0.159117
0.176866
0.194018
0.218603
0.258054
0.322462
0.387765
0.350281
0.385672
0.353149
0.244595
0.21623
0.106748
0.0648997
0.0729651
0.0748672
0.0627874
0.0590525
0.0737159
0.0855874
0.0866974
0.0742804
0.0473276
0.0249484
0.0546313
0.133402
0.140896
0.181592
0.195246
0.229368
0.305012
0.400203
0.344152
0.432332
0.385627
0.269428
0.225864
0.0866553
0.059853
0.067161
0.0753107
0.0685973
0.0656278
0.0585432
0.0573698
0.0550676
0.0420315
0.0342672
0.0244679
0.0571138
0.125897
0.135287
0.2092
0.202794
0.20664
0.273214
0.406625
0.301905
0.523743
0.448242
0.280165
0.217933
0.0937538
0.062202
0.0625141
0.0713106
0.0711511
0.063278
0.0550457
0.0523623
0.0515492
0.0413701
0.033261
0.0155191
0.0460383
0.108573
0.139198
0.211813
0.233855
0.257887
0.329451
0.459017
0.403146
0.585295
0.570966
0.381183
0.285966
0.132075
0.0808545
0.0759325
0.085208
0.0791157
0.0682466
0.0618299
0.0543054
0.0420478
0.0320304
0.0282401
0.0145924
0.0436759
0.104208
0.152081
0.19858
0.287986
0.358778
0.401261
0.420028
0.500581
0.700748
0.883223
0.582656
0.33817
0.209431
0.114899
0.110584
0.0961288
0.088182
0.077039
0.0691209
0.0552541
0.0458185
0.0312143
0.017827
0.0122414
0.0372645
0.083291
0.162835
0.231701
0.342588
0.387869
0.440079
0.430994
0.392793
0.570102
1.05779
1.14285
0.455205
0.27439
0.107077
0.102019
0.0867551
0.071113
0.0644092
0.0643449
0.0613813
0.0421135
0.027589
0.0118645
0.0125493
0.0292527
0.0740841
0.1927
0.333977
0.407379
0.338591
0.264962
0.385949
0.419945
0.635251
1.13959
1.68837
1.18565
0.409432
0.154686
0.067188
0.0639029
0.0589625
0.0550349
0.0494403
0.0607937
0.0439111
0.0211414
0.0116754
0.0134631
0.0210523
0.0574364
0.121135
0.224657
0.395837
0.2409
0.258567
0.206324
0.243665
0.788495
0.917492
2.02558
1.36647
0.731285
0.356485
0.0616782
0.112128
0.0536076
0.0834211
0.08579
0.0787188
0.0820494
0.0307051
0.0106227
0.0113821
0.0174949
0.0331771
0.0694429
0.0923571
0.14403
0.165845
0.148264
0.150946
0.260708
0.283586
0.51076
1.5001
1.29293
0.986434
0.556311
0.163017
0.187059
0.0524712
0.0713069
0.100434
0.116343
0.114689
0.0379887
0.0140403
0.0127972
0.0122903
0.0177644
0.03555
0.0451765
0.0939668
0.140661
0.174022
0.183681
0.166811
0.168967
0.300621
0.910633
1.14168
0.647322
0.617775
0.504917
0.303068
0.188696
0.22952
0.273067
0.240797
0.152888
0.0662275
0.0390499
0.0160477
0.0362431
0.0159864
0.0120294
0.0105404
0.0105563
0.010481
0.0173923
0.0107918
0.105671
0.363058
0.613774
0.451345
0.101361
0.0707021
0.0644132
0.058373
0.0481213
0.0462627
0.0439674
0.0461746
0.0429373
0.0400839
0.0363615
0.0289321
0.0205495
0.08247
0.0258992
0.0171213
0.0175102
0.0177617
0.0218068
0.0256934
0.0282133
0.0295909
0.0302319
0.0314251
0.0317094
0.0323314
0.0344553
0.0348093
0.0372597
0.0455804
0.0497556
0.0560702
0.0725167
0.109629
0.211069
0.210201
0.178892
0.182067
0.0160293
0.0223384
0.0354411
0.0426092
0.0489724
0.0556991
0.064958
0.0750011
0.0883248
0.107097
0.127717
0.140526
0.137689
0.146465
0.146082
0.155611
0.209783
0.288213
0.389484
0.500957
0.706888
1.21486
1.26224
1.05076
0.302367
0.00988265
0.0228677
0.0395158
0.0533534
0.0644717
0.071447
0.0808816
0.0951573
0.112388
0.123023
0.133236
0.144228
0.147
0.16386
0.168817
0.176612
0.16502
0.183449
0.209473
0.2862
0.449222
0.688845
0.75796
0.626503
0.213974
0.0104188
0.0306065
0.0608923
0.0858746
0.100156
0.108353
0.124278
0.13071
0.140073
0.137219
0.145517
0.144938
0.154404
0.166604
0.162272
0.154938
0.151899
0.154213
0.155094
0.179329
0.207911
0.229472
0.394197
0.370785
0.256637
0.0161464
0.0431194
0.0955061
0.142149
0.14649
0.148835
0.185865
0.167498
0.165337
0.154364
0.155827
0.163219
0.166856
0.190765
0.169592
0.142218
0.135141
0.140859
0.145803
0.140246
0.171645
0.154156
0.16306
0.236864
0.2178
0.0233304
0.068005
0.155836
0.182533
0.187869
0.189939
0.190222
0.189804
0.184837
0.177177
0.200277
0.199991
0.243197
0.230667
0.180542
0.157735
0.126006
0.128826
0.123827
0.138664
0.135366
0.134759
0.117285
0.141408
0.155699
0.0293302
0.108133
0.203012
0.171328
0.204338
0.227141
0.231147
0.235202
0.223026
0.22589
0.233284
0.231599
0.29022
0.256402
0.20348
0.157983
0.138491
0.122966
0.0962263
0.109978
0.102933
0.134
0.0990422
0.0949592
0.111753
0.0407444
0.155251
0.219863
0.208848
0.229683
0.270205
0.274988
0.27966
0.277126
0.273058
0.28923
0.273216
0.284331
0.266022
0.215283
0.157813
0.143508
0.123279
0.104047
0.102016
0.0894833
0.113362
0.108657
0.0726154
0.0892406
0.0501071
0.199282
0.18191
0.17542
0.239449
0.261705
0.281169
0.292718
0.303166
0.293456
0.306315
0.29341
0.315802
0.236252
0.220243
0.166765
0.134117
0.122379
0.116239
0.107687
0.0830677
0.117361
0.11509
0.0956531
0.0897948
0.0540275
0.236087
0.172395
0.169323
0.185743
0.208903
0.234041
0.258572
0.28102
0.268146
0.27885
0.26506
0.286431
0.209463
0.184932
0.149694
0.131075
0.122888
0.116834
0.116501
0.108799
0.111358
0.0994102
0.0898641
0.104532
0.0595635
0.18812
0.157953
0.167078
0.164962
0.181718
0.195812
0.228308
0.256489
0.250969
0.244236
0.222
0.212175
0.165325
0.141926
0.139153
0.141622
0.128755
0.125553
0.1197
0.103089
0.104121
0.105224
0.0872278
0.0989049
0.0641106
0.222491
0.155781
0.162361
0.151888
0.168838
0.179546
0.207221
0.228389
0.224226
0.204541
0.164463
0.152241
0.106023
0.10255
0.112777
0.13443
0.132152
0.118799
0.109784
0.0916949
0.0895879
0.0784138
0.0811421
0.0862783
0.0681933
0.224731
0.157868
0.156206
0.1448
0.161049
0.18086
0.205733
0.213911
0.194284
0.155057
0.110512
0.113808
0.0894733
0.0867969
0.0870107
0.106822
0.127471
0.107388
0.101081
0.109138
0.0791517
0.0872453
0.0883897
0.0803293
0.0716274
0.185239
0.157763
0.144072
0.151047
0.160074
0.176634
0.194046
0.211109
0.166904
0.114411
0.0659328
0.0717738
0.0795055
0.0815387
0.0942401
0.094305
0.105881
0.0872418
0.0810931
0.083351
0.0944891
0.0929978
0.0672129
0.0255262
0.0741371
0.183146
0.165847
0.150142
0.151662
0.161864
0.192412
0.209271
0.207464
0.165154
0.0928907
0.0584951
0.0582001
0.0741491
0.0821152
0.0825393
0.0762328
0.0934887
0.0797674
0.0826058
0.0780107
0.0652864
0.0473659
0.0315995
0.0199215
0.0749672
0.151656
0.161574
0.17669
0.175223
0.166684
0.220405
0.249627
0.252491
0.195978
0.12549
0.0591998
0.052005
0.054942
0.0609189
0.0667817
0.0689759
0.084299
0.0703707
0.0778052
0.0645503
0.0556599
0.0437798
0.0253942
0.0132888
0.0752562
0.136175
0.143032
0.149434
0.154332
0.178603
0.247107
0.291654
0.28932
0.227421
0.143431
0.0547792
0.0449965
0.0495711
0.0562393
0.0570789
0.0665378
0.0849976
0.0699688
0.0643216
0.0562884
0.0494445
0.0351474
0.018017
0.0095812
0.0631694
0.138593
0.116216
0.14537
0.175554
0.236351
0.338909
0.375356
0.347273
0.310321
0.241474
0.0857797
0.066044
0.0603308
0.066286
0.0634133
0.0736645
0.0874389
0.0710807
0.0637284
0.055206
0.0415439
0.0288667
0.0132618
0.00943426
0.0609188
0.15266
0.161887
0.199706
0.240694
0.341385
0.444044
0.476994
0.411826
0.387949
0.363193
0.133408
0.113175
0.0979353
0.0886931
0.0898877
0.0934523
0.0928566
0.0748117
0.062555
0.0482112
0.0335049
0.0184737
0.0134233
0.0102171
0.0530115
0.131811
0.183525
0.261264
0.381566
0.519063
0.552011
0.594351
0.837505
0.435414
0.406574
0.296077
0.124003
0.137288
0.114698
0.107715
0.077724
0.0680623
0.0570207
0.0486481
0.0352453
0.0222973
0.0153543
0.0126331
0.0114202
0.0428462
0.123015
0.311135
0.416961
0.598695
0.69598
0.683653
0.860448
1.14764
0.986436
0.540433
0.447736
0.151908
0.099485
0.0624988
0.0617933
0.0461131
0.0397253
0.0352714
0.0298092
0.0225677
0.0150771
0.0130992
0.0111879
0.0110192
0.0333318
0.101108
0.307369
0.665263
0.903836
0.561501
0.544954
1.2144
1.21434
1.77539
0.77649
0.738774
0.142936
0.0670948
0.0413639
0.038343
0.0319813
0.0296783
0.0283279
0.0245032
0.0190857
0.0152864
0.0127875
0.0101252
0.00810971
0.0237662
0.0652491
0.159082
0.333662
0.593243
0.621578
0.462032
0.491062
0.810167
1.26295
1.39975
1.22467
0.415231
0.275685
0.0215846
0.0328513
0.0282657
0.0309561
0.0349646
0.026663
0.0290903
0.0169477
0.0199198
0.0118672
0.00967514
0.0176791
0.0289266
0.0537612
0.0805242
0.231735
0.269487
0.29878
0.545421
0.390147
0.122661
1.75259
1.7114
0.71182
0.550139
0.417253
0.114868
0.119312
0.0492892
0.0600149
0.0813223
0.0721927
0.0598974
0.0410807
0.0215198
0.00760169
0.027693
0.0146977
0.0138857
0.0122216
0.0116498
0.0128104
0.0161372
0.0234732
0.0400377
0.441453
0.427183
0.128416
0.0795925
0.0615606
0.052218
0.0426209
0.0422925
0.0387095
0.0384988
0.0411271
0.0422146
0.0396781
0.0353492
0.0223507
0.0200676
0.0750546
0.0295732
0.0163408
0.017565
0.0194128
0.0238139
0.0277199
0.0312251
0.0331671
0.0363517
0.0448299
0.0468064
0.0473049
0.0496858
0.0522259
0.0523556
0.0522573
0.0589776
0.0709663
0.102894
0.185529
0.222383
0.262628
0.155459
0.342184
0.0166622
0.0253304
0.0414641
0.0487581
0.0576693
0.0677504
0.093972
0.121385
0.141284
0.151926
0.150613
0.163297
0.178027
0.196376
0.224146
0.237759
0.284355
0.327003
0.343566
0.573949
0.845714
1.02279
1.18162
1.01732
0.179511
0.00998154
0.0313329
0.0534178
0.0729294
0.0884665
0.117352
0.140702
0.149978
0.18022
0.174836
0.171487
0.180691
0.177541
0.16087
0.159089
0.162037
0.165497
0.158743
0.20119
0.328627
0.475462
0.541251
0.709311
0.701146
0.067566
0.0133497
0.0422578
0.0838927
0.1165
0.14383
0.193824
0.21072
0.199166
0.204846
0.198388
0.190198
0.18258
0.184061
0.180641
0.169067
0.155448
0.152874
0.139204
0.132742
0.154018
0.175433
0.219511
0.305913
0.457375
0.103699
0.0199069
0.0653566
0.132113
0.173537
0.252616
0.217256
0.213328
0.199602
0.204531
0.200292
0.213297
0.190733
0.170688
0.174744
0.151756
0.134672
0.125756
0.115714
0.120125
0.11401
0.11219
0.118925
0.130968
0.316695
0.190228
0.0244472
0.105987
0.183101
0.225411
0.304474
0.285966
0.246662
0.254469
0.233163
0.23625
0.24339
0.210036
0.201551
0.186779
0.149669
0.127822
0.107272
0.105162
0.104159
0.0965977
0.096246
0.0839833
0.0822968
0.131596
0.165795
0.0388882
0.171305
0.215101
0.267127
0.326655
0.319601
0.296132
0.298408
0.27488
0.275124
0.305137
0.307844
0.299557
0.22496
0.168567
0.12917
0.119345
0.112819
0.0914068
0.0857944
0.0788563
0.0698019
0.06542
0.0782197
0.109638
0.0570957
0.232473
0.21118
0.249836
0.272728
0.296256
0.303844
0.317163
0.307262
0.284418
0.280017
0.305465
0.328481
0.271419
0.182942
0.123891
0.118437
0.109458
0.0893289
0.0864484
0.0789898
0.0735064
0.0637586
0.0592468
0.0784426
0.0729608
0.258309
0.181507
0.194568
0.197614
0.214931
0.242948
0.261385
0.279253
0.268808
0.271787
0.282672
0.314499
0.228909
0.211392
0.143352
0.130178
0.114137
0.0896982
0.0848166
0.0731654
0.0712197
0.0696278
0.058402
0.0687242
0.0744748
0.220332
0.173397
0.177386
0.17952
0.179521
0.176957
0.183312
0.183038
0.187746
0.198153
0.203957
0.210618
0.171166
0.159257
0.126965
0.112073
0.100724
0.0898655
0.079356
0.0677057
0.068014
0.062835
0.0583581
0.0677987
0.0786281
0.239852
0.168024
0.169433
0.16643
0.164721
0.160533
0.155318
0.151808
0.149734
0.147077
0.164485
0.162157
0.129138
0.119363
0.128433
0.115889
0.111937
0.0934267
0.0968211
0.0658694
0.0762875
0.0607937
0.0558067
0.0634216
0.0830831
0.220361
0.168824
0.169229
0.150151
0.150439
0.146582
0.147541
0.122927
0.124022
0.118039
0.113979
0.116897
0.103461
0.100449
0.105401
0.120921
0.103923
0.0833052
0.0854918
0.0711176
0.0670032
0.0594507
0.053083
0.0627653
0.0737441
0.239357
0.174773
0.182132
0.158935
0.151305
0.149181
0.152095
0.100849
0.0877154
0.0883712
0.0916903
0.0962611
0.0874876
0.103869
0.113129
0.0944235
0.0924253
0.0854398
0.0801707
0.0629228
0.0565133
0.052544
0.0530269
0.0641746
0.0733417
0.224719
0.165087
0.176493
0.194074
0.155728
0.155127
0.147604
0.0983126
0.0719525
0.0738017
0.0817664
0.0783379
0.0803612
0.0884011
0.0991619
0.0680058
0.0784141
0.0825983
0.0786196
0.0519716
0.0462135
0.0495915
0.0534566
0.0485635
0.0823002
0.215733
0.193791
0.192867
0.201906
0.163299
0.154942
0.135023
0.115662
0.0687385
0.0595371
0.0658283
0.0727601
0.0694608
0.074932
0.0772474
0.06214
0.0652809
0.069895
0.0784719
0.0520758
0.0463535
0.0521264
0.0554372
0.105114
0.0804626
0.200167
0.171019
0.220563
0.19051
0.222411
0.189152
0.128081
0.12265
0.0740664
0.0463767
0.0523862
0.0523171
0.0500409
0.0578404
0.0624642
0.0592257
0.0665544
0.0651587
0.0768079
0.0518959
0.046107
0.051467
0.0446579
0.0246536
0.0848178
0.176452
0.159509
0.201012
0.180364
0.162385
0.143868
0.17082
0.146803
0.0859687
0.0481547
0.0386857
0.0460038
0.0439904
0.051013
0.0564892
0.0670772
0.0707779
0.0664588
0.0693615
0.0562463
0.0451766
0.0458727
0.0300258
0.0110897
0.0737534
0.164136
0.150886
0.173788
0.154327
0.164233
0.167877
0.200669
0.182569
0.109585
0.0729588
0.0451641
0.050895
0.0561628
0.0609588
0.0718323
0.0784188
0.078339
0.0707993
0.0655622
0.0602154
0.0436229
0.0334756
0.0205854
0.00955358
0.0747813
0.160769
0.184734
0.200615
0.252455
0.244049
0.206672
0.266079
0.262427
0.144343
0.106478
0.081135
0.0659977
0.0777318
0.0886039
0.0878732
0.0872832
0.0823086
0.0780512
0.0735383
0.0522864
0.0321726
0.022421
0.0168142
0.0099302
0.0777225
0.168205
0.163344
0.245731
0.342465
0.409865
0.362181
0.462155
0.444353
0.20349
0.141634
0.0810169
0.0773395
0.0754163
0.0879076
0.0951701
0.0772455
0.0599671
0.0604432
0.0494779
0.0348731
0.0257147
0.0189019
0.0143642
0.0106929
0.0567361
0.13434
0.227953
0.505529
0.73923
0.872503
0.632945
0.677054
0.828505
0.451618
0.179109
0.0675863
0.0610806
0.063729
0.0590175
0.0458908
0.0429056
0.040052
0.036309
0.0322938
0.0245722
0.0190273
0.0163546
0.013915
0.0134652
0.0469894
0.206141
0.37772
0.623365
0.992901
1.17956
0.977812
1.22766
1.32959
1.28162
0.417793
0.0608154
0.041329
0.0398853
0.0352282
0.0322343
0.0282793
0.028948
0.0270005
0.0237279
0.0219352
0.0182678
0.0154637
0.0166661
0.0152203
0.0324668
0.135898
0.314535
0.735129
1.23975
1.21992
1.08127
1.82829
2.24077
1.438
1.48108
0.221225
0.0776453
0.0310503
0.032602
0.0303925
0.0275697
0.0279407
0.0242895
0.0220855
0.0208344
0.0197943
0.0202999
0.0297151
0.024584
0.0255928
0.0570768
0.100738
0.258475
0.475206
0.409588
0.607873
0.750325
0.576027
2.10956
1.51261
0.390664
0.162062
0.0426413
0.0398611
0.0343035
0.043158
0.0381974
0.0343698
0.0420294
0.0387677
0.0410031
0.0354195
0.0317559
0.0311475
0.0274413
0.0170972
0.0223255
0.021163
0.0205714
0.0230647
0.0289514
0.0325836
0.0647807
0.151212
0.219445
0.0971246
0.0636506
0.0528491
0.0427021
0.0398814
0.0384125
0.0375003
0.0409324
0.0411777
0.0446842
0.0438125
0.0434646
0.030713
0.02419
0.0688035
0.0277266
0.0170408
0.0160226
0.0207985
0.0251678
0.0297263
0.0327293
0.0358889
0.0425151
0.0488517