/*--------------------------------*- C++ -*----------------------------------*\
  =========                 |
  \\      /  F ield         | OpenFOAM: The Open Source CFD Toolbox
   \\    /   O peration     | Website:  https://openfoam.org
    \\  /    A nd           | Version:  11
     \\/     M anipulation  |
\*---------------------------------------------------------------------------*/
FoamFile
{
    format      ascii;
    class       volScalarField;
    location    "5";
    object      omega;
}
// * * * * * * * * * * * * * * * * * * * * * * * * * * * * * * * * * * * * * //

dimensions      [0 0 -1 0 0 0 0];

internalField   nonuniform List<scalar> 
17196
(
0.0185224
0.0163327
0.0189062
0.0205706
0.0217355
0.0235153
0.0256389
0.0274264
0.0293482
0.0305159
0.0316759
0.0327146
0.0331757
0.0331788
0.0325242
0.0269124
0.0282138
0.029535
0.0321581
0.0362189
0.0352142
0.0435793
0.0562225
0.058815
0.0584501
0.00987038
0.00813
0.01026
0.0103388
0.0103136
0.0106395
0.0111046
0.0115986
0.0120975
0.0124951
0.0128571
0.0132054
0.0136309
0.0139242
0.0142949
0.0143684
0.0144803
0.0149626
0.0155738
0.01775
0.0182452
0.0220231
0.0265742
0.0301725
0.0320259
0.0102265
0.00962648
0.00999198
0.00988605
0.010065
0.0105506
0.0110288
0.0115903
0.0120385
0.012452
0.0127332
0.0132818
0.0135941
0.0140103
0.0143869
0.0149012
0.0148138
0.0152013
0.0158557
0.0158693
0.0169459
0.0186108
0.0218539
0.0235742
0.0253805
0.0106822
0.00982462
0.0100238
0.00988465
0.0100686
0.0105628
0.0111868
0.0117214
0.0121521
0.0125617
0.0129234
0.0133444
0.0135963
0.0140644
0.0143754
0.0151505
0.0152388
0.0149834
0.0155695
0.0173926
0.0172974
0.0163806
0.0174556
0.0181979
0.0208466
0.0108312
0.00986932
0.0100339
0.00990245
0.0100706
0.0104899
0.0111951
0.0117357
0.0122646
0.0126103
0.0129567
0.0133093
0.0136919
0.0140682
0.0144568
0.015355
0.0156
0.015546
0.0160664
0.0169525
0.0172908
0.0156833
0.0177225
0.0179612
0.0190879
0.0111599
0.0101027
0.0101403
0.00988316
0.0101272
0.0104841
0.0112193
0.0118349
0.0123286
0.0126588
0.0130456
0.0134061
0.0137924
0.0143129
0.0148738
0.0151939
0.0159671
0.0161412
0.0159654
0.0148296
0.0151238
0.015787
0.0147152
0.0160117
0.0143106
0.0107188
0.0103909
0.010217
0.0100675
0.0100992
0.0106495
0.011214
0.0118394
0.0122774
0.0126015
0.0130352
0.0133002
0.0137798
0.0140754
0.0145861
0.0148514
0.0158829
0.0157215
0.0160673
0.0150027
0.0147516
0.0146712
0.0148213
0.0148829
0.0115027
0.0105913
0.0104216
0.0102873
0.0100924
0.0101865
0.0106151
0.0112904
0.0119064
0.0122549
0.0126044
0.0129201
0.0132926
0.0136807
0.0140831
0.0143766
0.0150554
0.0153295
0.0156378
0.015785
0.0159032
0.0153711
0.0149961
0.0144094
0.0139228
0.010667
0.010382
0.0105158
0.0104627
0.0101781
0.0102468
0.010643
0.011295
0.0118498
0.0121864
0.0125558
0.0128711
0.013303
0.0136354
0.0140765
0.0142734
0.0148284
0.0150128
0.0151481
0.0154133
0.0152645
0.0154363
0.0143664
0.0138961
0.0129522
0.0118163
0.0106625
0.0107435
0.0103385
0.010522
0.0103433
0.0107236
0.0112899
0.0118495
0.0121684
0.0125294
0.012856
0.013262
0.0134202
0.0139683
0.0142
0.0143276
0.0144094
0.0144981
0.0152004
0.0153059
0.0154994
0.0154824
0.0145975
0.0130339
0.0118947
0.0106403
0.0105522
0.0108662
0.0107812
0.0104788
0.0107352
0.0112843
0.0118136
0.0120881
0.012486
0.0128382
0.0132162
0.0134525
0.0137893
0.0141458
0.0142914
0.0147066
0.0147138
0.0147696
0.0148233
0.0150704
0.0150477
0.0154049
0.0140155
0.0118676
0.0106094
0.0111689
0.0107942
0.0105068
0.0104361
0.0107688
0.0113328
0.0117521
0.0120279
0.0124481
0.0128114
0.0130711
0.0132628
0.0135918
0.0141057
0.0143502
0.0148728
0.01466
0.0144692
0.0142601
0.0140494
0.014742
0.0145778
0.0150216
0.0133977
0.0108621
0.0108356
0.010997
0.0107243
0.0104383
0.0107703
0.0112549
0.0116569
0.0120239
0.0123325
0.0126225
0.0128169
0.0132007
0.0135548
0.0139908
0.0142582
0.0156981
0.0151435
0.0149572
0.0140575
0.014533
0.014322
0.0144933
0.0148402
0.0150016
0.011009
0.010839
0.010914
0.0105591
0.0104128
0.010641
0.0112128
0.0116626
0.0119938
0.0121997
0.0125449
0.0127602
0.0132266
0.0134246
0.0141768
0.0153412
0.0163574
0.0150174
0.0149107
0.0140637
0.0147403
0.0144496
0.0141387
0.0146546
0.0151159
0.0110354
0.011259
0.0100101
0.0102403
0.0101554
0.0105343
0.011184
0.0115076
0.0118951
0.0121452
0.0124981
0.0127583
0.013225
0.0136481
0.0149874
0.0169028
0.0169445
0.0153773
0.0156195
0.0145298
0.0149992
0.0146863
0.0141733
0.0145477
0.0150843
0.0113098
0.0106962
0.00995652
0.00993768
0.00996431
0.010436
0.0110168
0.0114229
0.0118461
0.0121119
0.0124512
0.0128325
0.0133708
0.0145613
0.01672
0.0186478
0.0185387
0.0162394
0.0159349
0.0150688
0.0151266
0.0141424
0.0140801
0.0146363
0.0151562
0.0114607
0.0104523
0.0097623
0.00980472
0.00984012
0.0102536
0.0108042
0.011342
0.0117287
0.012009
0.0123443
0.0129513
0.0136807
0.0159621
0.0171684
0.0219616
0.019577
0.0179625
0.0159225
0.0156694
0.0154069
0.0151005
0.014858
0.0148529
0.0151048
0.0103219
0.0100858
0.00962395
0.00973138
0.00973407
0.0100661
0.0106044
0.0112221
0.0116558
0.0119165
0.0123919
0.0130707
0.014518
0.0165676
0.0201471
0.024844
0.0199859
0.0191853
0.0154634
0.015677
0.0148657
0.0152792
0.0148955
0.0153282
0.015288
0.0102222
0.00972937
0.00946348
0.00957637
0.0094839
0.00984444
0.0104751
0.0111085
0.0115701
0.0118864
0.012374
0.0131967
0.0158245
0.0173081
0.0237884
0.0240139
0.0227044
0.0204685
0.0163045
0.0160195
0.0153206
0.0156755
0.015409
0.0153582
0.0154808
0.00994464
0.00927181
0.00962947
0.00955376
0.00940219
0.00960631
0.0102524
0.0109055
0.0114302
0.011942
0.0123909
0.0135788
0.0139944
0.0163047
0.0227418
0.0269457
0.027541
0.0231948
0.0182953
0.0154265
0.0159468
0.015482
0.0155058
0.015022
0.0151432
0.00959244
0.00881991
0.00918334
0.00896328
0.0090505
0.00939084
0.0100731
0.0106504
0.0113373
0.0117644
0.0122275
0.0129332
0.0143284
0.0176591
0.016842
0.0298051
0.0287372
0.0260271
0.0204319
0.016884
0.016057
0.0159248
0.0154553
0.0150812
0.0154056
0.00955484
0.00853276
0.00848216
0.00846211
0.00876168
0.00902755
0.00979123
0.0103444
0.0110963
0.0113996
0.0125199
0.0129152
0.0145913
0.0168796
0.0197057
0.0292848
0.0246666
0.0236186
0.0187573
0.0180772
0.0168247
0.0170026
0.0160989
0.0160185
0.0157913
0.00994687
0.00833764
0.00800341
0.0080295
0.0080525
0.0083243
0.00931267
0.00998331
0.0108115
0.0115753
0.0121166
0.0133482
0.0143461
0.0171212
0.0201783
0.0275376
0.0299365
0.0269287
0.0232629
0.020914
0.0201932
0.0184495
0.0169193
0.015664
0.0145634
0.010223
0.00811449
0.007976
0.00785435
0.00781393
0.00813648
0.00925228
0.0106651
0.0119618
0.0129648
0.014108
0.0156495
0.0169953
0.0180581
0.0208975
0.0208396
0.0255133
0.0279488
0.0275582
0.0263412
0.0243397
0.021956
0.0162671
0.0125266
0.0116487
0.0216108
0.0179162
0.0188056
0.0216471
0.0246258
0.0265285
0.0284686
0.0298338
0.0309531
0.0308495
0.0350238
0.040731
0.0404448
0.0413059
0.0426351
0.043968
0.0448177
0.0457164
0.0452203
0.0444576
0.0436755
0.038718
0.0249299
0.0250155
0.0213459
0.0186803
0.016043
0.0178959
0.0200752
0.0217713
0.0238063
0.0263846
0.0284772
0.0305422
0.0321192
0.0334353
0.0344594
0.03562
0.036656
0.0379407
0.0385858
0.0391634
0.0392197
0.0403639
0.0390411
0.0376374
0.0450941
0.0627453
0.0619267
0.0597506
0.189969
0.110151
0.148538
0.169532
0.15081
0.120318
0.0962788
0.0798572
0.0702434
0.0643198
0.0621771
0.0580802
0.0590388
0.0610733
0.0637281
0.0772487
0.0857196
0.110449
0.180876
0.167758
0.132539
0.0920305
0.119119
0.140744
0.163194
0.261503
0.141774
0.191416
0.171836
0.142979
0.12037
0.102359
0.0870772
0.0773316
0.0694474
0.065363
0.0586726
0.0535016
0.055265
0.0628714
0.0687233
0.0758253
0.082647
0.115876
0.155753
0.163422
0.136006
0.13056
0.166891
0.169154
0.288865
0.216392
0.201796
0.154554
0.127515
0.114451
0.100592
0.088491
0.0786193
0.0698386
0.0649989
0.0557893
0.0555351
0.0588893
0.0555883
0.0573981
0.0668803
0.0770164
0.102673
0.147342
0.179714
0.169723
0.0997834
0.160674
0.178787
0.306652
0.263657
0.195698
0.147525
0.123387
0.115016
0.102579
0.0912755
0.0795798
0.0735576
0.0664495
0.0597537
0.0622944
0.0610565
0.0607835
0.0621834
0.0621134
0.0649026
0.0712723
0.110407
0.173688
0.173569
0.121379
0.146518
0.12014
0.321404
0.272
0.191815
0.148109
0.123328
0.115275
0.105584
0.091714
0.0816429
0.0752594
0.0713318
0.0670392
0.0687092
0.0729633
0.0678571
0.0702153
0.0664134
0.0557966
0.0529468
0.0628706
0.142496
0.185092
0.121254
0.146911
0.159913
0.339869
0.273815
0.187143
0.145889
0.124004
0.115105
0.106726
0.0942079
0.086644
0.0815021
0.0814456
0.0825003
0.082216
0.0802491
0.076444
0.0721892
0.0643849
0.055577
0.0600846
0.0789596
0.103309
0.196105
0.220778
0.201125
0.420466
0.358538
0.271564
0.17644
0.13901
0.127108
0.119721
0.11017
0.102803
0.0998752
0.0968473
0.0937595
0.0920134
0.0882911
0.0892168
0.0845102
0.0731319
0.0655769
0.0626825
0.0560103
0.0595345
0.0688101
0.092423
0.206335
0.367786
0.56689
0.395125
0.264775
0.167626
0.140021
0.124817
0.124224
0.121231
0.11641
0.115591
0.111252
0.106377
0.104651
0.104557
0.10294
0.0981129
0.0836031
0.0767623
0.0746125
0.0516879
0.0491338
0.0500642
0.0616784
0.080867
0.222917
0.569928
0.409879
0.253617
0.164819
0.136551
0.133479
0.138553
0.138381
0.132768
0.132859
0.128938
0.124711
0.124253
0.120198
0.116996
0.107188
0.0982291
0.0907427
0.0813925
0.0729905
0.0620452
0.058258
0.0635658
0.0723744
0.0831592
0.159167
0.423194
0.240284
0.165228
0.144581
0.14425
0.15109
0.156826
0.155925
0.150385
0.151411
0.148451
0.1483
0.141677
0.140028
0.129245
0.127341
0.123133
0.112916
0.0996223
0.0732658
0.0653231
0.0650711
0.0510071
0.0540087
0.0635016
0.411724
0.234703
0.157819
0.152071
0.151832
0.15657
0.163527
0.166012
0.177223
0.172544
0.17372
0.171405
0.171264
0.178188
0.164847
0.165986
0.168288
0.16814
0.153131
0.136073
0.114886
0.0882411
0.0627156
0.0538938
0.0441522
0.423493
0.228928
0.1609
0.157473
0.158194
0.164192
0.17607
0.196615
0.188617
0.201531
0.199051
0.185285
0.203008
0.221154
0.201337
0.211509
0.222425
0.220515
0.21109
0.185696
0.156746
0.115564
0.0703264
0.0533106
0.0328169
0.413426
0.220482
0.158824
0.155952
0.171805
0.173735
0.195768
0.21534
0.205521
0.219598
0.209917
0.195607
0.231805
0.245115
0.232964
0.251772
0.252168
0.249314
0.255722
0.234449
0.20452
0.170058
0.128703
0.0912896
0.0474786
0.411692
0.2159
0.15742
0.158966
0.156146
0.181427
0.213049
0.209919
0.183106
0.22032
0.241694
0.219264
0.250101
0.257053
0.256716
0.268429
0.270875
0.268144
0.278621
0.270544
0.248852
0.211629
0.165573
0.127373
0.0518609
0.401771
0.210867
0.157507
0.155002
0.167361
0.19812
0.197551
0.188193
0.193757
0.215954
0.243376
0.236232
0.261249
0.269455
0.262635
0.271694
0.271176
0.260101
0.272465
0.281021
0.272038
0.242138
0.189846
0.14931
0.0959493
0.390614
0.210476
0.157858
0.158266
0.170912
0.197073
0.196231
0.182645
0.202155
0.194352
0.237206
0.209205
0.269238
0.282015
0.269972
0.270699
0.276096
0.270776
0.274328
0.274762
0.284155
0.263274
0.209895
0.16588
0.140508
0.394567
0.211667
0.163205
0.159235
0.176588
0.195654
0.190988
0.190115
0.19286
0.193135
0.225563
0.217562
0.258416
0.291459
0.279074
0.290288
0.284146
0.290672
0.278109
0.294005
0.286999
0.274138
0.223083
0.194202
0.263542
0.394677
0.214711
0.165827
0.172012
0.180201
0.197399
0.177092
0.179928
0.168352
0.187336
0.209331
0.221648
0.254952
0.300098
0.303686
0.283274
0.293225
0.277785
0.279093
0.297044
0.287925
0.27676
0.249347
0.272941
0.521851
0.399593
0.22804
0.177177
0.17731
0.191167
0.18646
0.16305
0.16888
0.162411
0.149381
0.1658
0.166964
0.24419
0.293782
0.325401
0.279829
0.291097
0.2945
0.299599
0.298099
0.276064
0.266808
0.268893
0.333165
0.693348
0.3942
0.239682
0.185937
0.184724
0.195569
0.17201
0.170474
0.157466
0.144355
0.144783
0.158361
0.177704
0.235514
0.303313
0.317286
0.29291
0.299696
0.301512
0.291933
0.287605
0.264528
0.248061
0.249359
0.288669
0.662689
0.386085
0.257046
0.204609
0.196175
0.184315
0.166535
0.154487
0.128686
0.116453
0.114737
0.122593
0.14649
0.218734
0.281204
0.281904
0.280792
0.270256
0.263173
0.265283
0.246546
0.225261
0.221992
0.234169
0.305223
0.537497
0.374531
0.263523
0.218813
0.198762
0.185621
0.160951
0.135846
0.116944
0.10212
0.0981778
0.101577
0.135113
0.215751
0.358678
0.300783
0.253709
0.248046
0.250358
0.212786
0.185968
0.1574
0.157068
0.221398
0.305367
0.463603
0.358527
0.262708
0.236008
0.216317
0.178273
0.141067
0.110531
0.0939558
0.0841383
0.0889873
0.110221
0.197155
0.480642
0.284053
0.218539
0.204399
0.201406
0.182013
0.154783
0.123887
0.107367
0.112201
0.166203
0.272324
0.504656
0.0186524
0.0181904
0.0202122
0.0218052
0.0227314
0.0244103
0.0259543
0.0294713
0.0319376
0.0349383
0.0312425
0.048401
0.0480469
0.0443625
0.0481338
0.0485843
0.0489327
0.0471872
0.0442789
0.0419967
0.0408936
0.0355795
0.0343211
0.0285435
0.0211433
0.0193161
0.0154046
0.0187382
0.020805
0.0242259
0.0268128
0.0305296
0.0319387
0.0339813
0.0358591
0.037242
0.0384116
0.0393972
0.0398495
0.0407327
0.0421934
0.0436273
0.0469673
0.0460454
0.046681
0.0440898
0.055548
0.0664518
0.065197
0.0536977
0.265257
0.1892
0.203341
0.192817
0.165423
0.13846
0.119183
0.105445
0.0941575
0.0885318
0.085228
0.0820912
0.0795961
0.0734006
0.0713977
0.0755545
0.0789225
0.085173
0.1004
0.116393
0.140461
0.159058
0.182727
0.196419
0.210042
0.319362
0.242467
0.203515
0.154843
0.128076
0.113266
0.106295
0.0992527
0.0934884
0.0893257
0.0874025
0.0854234
0.0820176
0.0762466
0.0821434
0.084756
0.0851025
0.093706
0.105837
0.12018
0.138819
0.164184
0.171474
0.210916
0.227357
0.334636
0.25821
0.184372
0.139135
0.122658
0.11485
0.109439
0.102397
0.0968132
0.0938374
0.090971
0.0891883
0.0844519
0.086312
0.096515
0.0952722
0.0945645
0.10296
0.113036
0.130712
0.146367
0.160994
0.175609
0.20926
0.219829
0.328628
0.255377
0.165568
0.13077
0.124115
0.12474
0.11805
0.10864
0.10151
0.103496
0.101198
0.0998563
0.100239
0.0986805
0.109222
0.106989
0.105533
0.100664
0.105216
0.112916
0.128882
0.147005
0.169166
0.186661
0.188471
0.375386
0.240768
0.150113
0.131173
0.129607
0.141741
0.12719
0.12132
0.114785
0.118546
0.114602
0.112996
0.115079
0.11371
0.120581
0.119623
0.116526
0.113475
0.111264
0.103193
0.11375
0.141797
0.147139
0.179168
0.192926
0.419036
0.220551
0.143422
0.128986
0.143221
0.155512
0.146658
0.143196
0.140758
0.137171
0.131997
0.129642
0.129482
0.129365
0.132629
0.133822
0.135234
0.126902
0.127029
0.116644
0.117147
0.138112
0.165185
0.176418
0.181927
0.432613
0.203856
0.138115
0.134378
0.148156
0.141822
0.149272
0.15326
0.153291
0.156905
0.160449
0.157754
0.149104
0.146073
0.146796
0.153223
0.14747
0.149072
0.13797
0.130937
0.113125
0.118321
0.130259
0.218905
0.195588
0.447636
0.191724
0.136455
0.126466
0.13635
0.15953
0.165805
0.172498
0.177426
0.194874
0.189461
0.175316
0.165179
0.163716
0.169342
0.173182
0.170794
0.165511
0.147989
0.133619
0.119943
0.104954
0.108535
0.15793
0.231841
0.434269
0.18165
0.138313
0.134624
0.15121
0.172966
0.17752
0.189899
0.193772
0.21072
0.201471
0.187381
0.183596
0.184544
0.188023
0.201005
0.204569
0.194462
0.176755
0.149297
0.118788
0.108941
0.104082
0.106455
0.120751
0.426099
0.181716
0.135714
0.138719
0.156411
0.187441
0.190757
0.20237
0.201406
0.211346
0.205848
0.194302
0.198621
0.202583
0.210636
0.219919
0.224024
0.221824
0.210006
0.190055
0.155959
0.130914
0.122389
0.122075
0.108698
0.410064
0.185617
0.137074
0.147317
0.162616
0.198582
0.208806
0.214061
0.215269
0.215411
0.211567
0.203845
0.209533
0.211048
0.210927
0.215367
0.224192
0.217746
0.217738
0.232912
0.217469
0.189469
0.167482
0.153165
0.132603
0.385343
0.182112
0.134973
0.152919
0.167581
0.199304
0.219606
0.224993
0.225478
0.221841
0.217505
0.210719
0.213086
0.211315
0.204025
0.198633
0.211654
0.21967
0.216819
0.23119
0.246021
0.254143
0.231719
0.196794
0.161369
0.363513
0.175163
0.135035
0.156456
0.178032
0.202252
0.22443
0.231079
0.233589
0.228468
0.22589
0.220338
0.217614
0.213939
0.189925
0.180525
0.179968
0.200825
0.225416
0.219191
0.252683
0.234717
0.234351
0.254121
0.281949
0.37664
0.17228
0.135564
0.155937
0.179047
0.202801
0.228724
0.234722
0.243486
0.236306
0.237576
0.235923
0.227684
0.218237
0.212032
0.196667
0.189731
0.187213
0.205941
0.218679
0.225246
0.233733
0.26226
0.359326
0.646638
0.36108
0.167116
0.13999
0.15839
0.189988
0.212708
0.234404
0.238209
0.24903
0.244127
0.244738
0.25095
0.247636
0.231519
0.220385
0.210865
0.200597
0.190825
0.185079
0.190377
0.221663
0.266706
0.320737
0.404336
0.62858
0.346402
0.169104
0.145621
0.156576
0.195526
0.21948
0.240708
0.249444
0.259093
0.256184
0.246726
0.258107
0.263607
0.250908
0.235758
0.222534
0.197342
0.193914
0.188276
0.191216
0.213631
0.242156
0.273438
0.32383
0.689508
0.352878
0.170352
0.14514
0.165696
0.198224
0.235392
0.246347
0.248007
0.268024
0.268972
0.254083
0.254775
0.274209
0.27019
0.249346
0.228836
0.198503
0.203898
0.196872
0.202888
0.214446
0.253081
0.272788
0.342976
0.61241
0.357437
0.174463
0.154584
0.182303
0.205475
0.240437
0.248986
0.275566
0.271646
0.289353
0.274141
0.246541
0.264048
0.277737
0.277753
0.251513
0.236336
0.224367
0.219273
0.223847
0.244741
0.255777
0.281699
0.357376
0.575062
0.37531
0.19112
0.168885
0.200292
0.237423
0.258802
0.266367
0.261703
0.247669
0.284031
0.300838
0.247664
0.235928
0.240802
0.248654
0.243834
0.235547
0.231762
0.221987
0.227878
0.236094
0.263578
0.286609
0.352815
0.559538
0.379508
0.193526
0.177229
0.213549
0.259248
0.278929
0.296764
0.291178
0.247093
0.286832
0.290944
0.286475
0.246775
0.245828
0.226843
0.21525
0.21682
0.219153
0.24014
0.248339
0.246757
0.248787
0.282312
0.318253
0.464921
0.390157
0.212908
0.196382
0.227558
0.257005
0.260265
0.270165
0.228747
0.198565
0.189044
0.265137
0.361453
0.281415
0.239908
0.212445
0.239873
0.209782
0.215375
0.221654
0.235478
0.245107
0.271064
0.288481
0.33738
0.534462
0.39171
0.247259
0.204273
0.231369
0.246404
0.225316
0.19931
0.165294
0.13171
0.141331
0.167723
0.473728
0.26178
0.249775
0.25253
0.229967
0.213112
0.21423
0.22383
0.21437
0.219215
0.248896
0.301884
0.335962
0.441668
0.378925
0.281534
0.237245
0.210619
0.177039
0.133594
0.0915067
0.0689921
0.0687075
0.0850907
0.14606
0.370627
0.268931
0.230007
0.224036
0.223627
0.223658
0.218663
0.19372
0.185064
0.168796
0.204521
0.262466
0.245392
0.396347
0.0184887
0.0196765
0.020147
0.0208894
0.021828
0.0233479
0.0258254
0.0287772
0.0320973
0.0339852
0.0281392
0.0606586
0.0566998
0.0448449
0.0510726
0.0518846
0.0489109
0.0471265
0.043874
0.0418647
0.0406375
0.0382223
0.0342743
0.0284862
0.0206206
0.0198806
0.0162332
0.0187328
0.0229994
0.0265061
0.031215
0.0341894
0.0361985
0.0376942
0.0392564
0.0413169
0.0422506
0.0434706
0.045014
0.0454359
0.0455752
0.0514044
0.0499081
0.0486343
0.0467527
0.0490011
0.0656958
0.0675168
0.0643292
0.0445514
0.278506
0.229799
0.216601
0.19299
0.166096
0.148075
0.132633
0.121508
0.1107
0.104093
0.0978137
0.0944539
0.0959234
0.0908939
0.093027
0.0925102
0.0837127
0.085017
0.108931
0.145497
0.163973
0.195416
0.206551
0.211032
0.277967
0.327129
0.250734
0.193068
0.152721
0.134566
0.128041
0.123368
0.118054
0.109544
0.105797
0.103533
0.104634
0.107258
0.100185
0.0999349
0.0980277
0.106742
0.102997
0.107315
0.129315
0.158425
0.195424
0.201072
0.252602
0.310251
0.333714
0.25742
0.175728
0.140442
0.131537
0.132912
0.130671
0.123615
0.115816
0.114979
0.111927
0.112717
0.112802
0.111328
0.116167
0.117795
0.122273
0.120341
0.12462
0.129884
0.138773
0.177062
0.18883
0.235549
0.2744
0.392415
0.238128
0.154884
0.132526
0.133857
0.145343
0.13721
0.128205
0.129336
0.125282
0.121109
0.120179
0.119882
0.119391
0.122325
0.128294
0.124664
0.12105
0.122159
0.128343
0.132204
0.152703
0.186754
0.230365
0.25517
0.419645
0.212143
0.145243
0.127806
0.13495
0.153045
0.141564
0.133948
0.134504
0.131602
0.128437
0.127004
0.127293
0.131172
0.140234
0.134057
0.133124
0.136671
0.131901
0.131529
0.127258
0.145781
0.178056
0.200744
0.214733
0.422419
0.193192
0.138252
0.127058
0.14122
0.149168
0.149471
0.150044
0.152279
0.150472
0.147071
0.144608
0.14489
0.14938
0.153034
0.150244
0.145184
0.143884
0.144747
0.131173
0.130361
0.130379
0.164259
0.204003
0.207694
0.429978
0.177558
0.12778
0.121819
0.143889
0.149061
0.155619
0.16235
0.168222
0.169867
0.168136
0.166952
0.166954
0.160858
0.160154
0.159638
0.150103
0.154512
0.154383
0.139722
0.140663
0.13381
0.14963
0.199164
0.202139
0.399682
0.165089
0.11925
0.118796
0.137042
0.147201
0.155969
0.162747
0.167072
0.174344
0.173289
0.170371
0.170853
0.171081
0.171566
0.177599
0.174559
0.172418
0.157626
0.151785
0.154073
0.128973
0.140994
0.164555
0.184682
0.38304
0.158633
0.113695
0.116159
0.127492
0.141547
0.151035
0.159535
0.164486
0.17539
0.175723
0.172563
0.177134
0.185054
0.192392
0.207259
0.218272
0.199876
0.177445
0.154462
0.145169
0.132861
0.132303
0.146506
0.146992
0.363176
0.161291
0.113919
0.116047
0.124501
0.134376
0.14303
0.154734
0.160574
0.165546
0.169269
0.171326
0.179043
0.190908
0.202142
0.218868
0.217191
0.20622
0.192026
0.174614
0.154767
0.135075
0.130349
0.140084
0.127614
0.348128
0.153839
0.116554
0.115804
0.123272
0.132219
0.141336
0.154051
0.160104
0.163948
0.166124
0.171526
0.178725
0.182323
0.184219
0.17839
0.173035
0.168479
0.180618
0.179773
0.170499
0.155296
0.148785
0.157901
0.142593
0.328098
0.154858
0.118575
0.117194
0.12273
0.131634
0.141214
0.153769
0.162335
0.16408
0.165205
0.168783
0.173845
0.172554
0.172558
0.17857
0.185599
0.16609
0.160966
0.171893
0.171071
0.183072
0.178145
0.181597
0.243922
0.318689
0.15734
0.120224
0.119944
0.123587
0.133247
0.141768
0.156659
0.168296
0.172187
0.168452
0.170205
0.181592
0.18653
0.191805
0.20466
0.207961
0.203789
0.181209
0.181065
0.175294
0.17756
0.186687
0.254527
0.584846
0.312595
0.15501
0.123589
0.12406
0.126554
0.136225
0.144478
0.159338
0.181394
0.19379
0.184453
0.178535
0.192387
0.211396
0.219282
0.232436
0.227922
0.229057
0.19995
0.191346
0.190716
0.227445
0.284787
0.403184
0.648089
0.311187
0.158488
0.127926
0.128321
0.131817
0.145852
0.154677
0.165095
0.190275
0.21252
0.21501
0.19157
0.203236
0.225064
0.233545
0.234514
0.225262
0.234424
0.207227
0.191756
0.191753
0.217024
0.249311
0.357684
0.584786
0.312679
0.158185
0.131414
0.135014
0.141303
0.161835
0.173175
0.177505
0.198366
0.228877
0.246346
0.231442
0.218344
0.217256
0.220887
0.236999
0.22128
0.224178
0.212933
0.198048
0.20844
0.223637
0.275718
0.360687
0.601132
0.315404
0.165812
0.139494
0.139804
0.154472
0.174152
0.192561
0.200091
0.210039
0.229222
0.270073
0.271633
0.249843
0.249885
0.245533
0.247926
0.230994
0.214827
0.225052
0.230119
0.231591
0.254073
0.29151
0.336555
0.577238
0.315432
0.165134
0.153926
0.153666
0.171819
0.190891
0.220226
0.236931
0.234558
0.224875
0.2507
0.310404
0.312413
0.286109
0.273919
0.24219
0.210144
0.22049
0.226605
0.230795
0.242953
0.259328
0.287729
0.330462
0.52185
0.335756
0.18668
0.167076
0.197538
0.214732
0.236075
0.261317
0.288191
0.259239
0.239374
0.238332
0.253412
0.28416
0.255754
0.247766
0.242903
0.252715
0.239832
0.230166
0.229654
0.242357
0.264713
0.280363
0.319394
0.486092
0.347276
0.195195
0.188699
0.229322
0.265527
0.301856
0.320353
0.317663
0.29774
0.262601
0.238625
0.229833
0.24136
0.255459
0.25363
0.245384
0.233305
0.221142
0.227096
0.234449
0.253416
0.266722
0.260549
0.323795
0.537203
0.370422
0.209364
0.231164
0.254764
0.293843
0.34618
0.362656
0.325143
0.312491
0.30929
0.295973
0.218799
0.205964
0.191939
0.202407
0.208822
0.219185
0.223976
0.228478
0.242294
0.257873
0.265241
0.285163
0.369718
0.747115
0.378582
0.223325
0.250526
0.302347
0.35182
0.348696
0.337606
0.278834
0.258461
0.301413
0.393777
0.226343
0.183085
0.182782
0.216835
0.197872
0.222263
0.223672
0.223695
0.249042
0.258353
0.267631
0.295326
0.395934
0.683913
0.390853
0.26449
0.245443
0.239848
0.278882
0.217363
0.13228
0.0772323
0.0737732
0.103985
0.368752
0.27541
0.204918
0.197145
0.208923
0.212956
0.221679
0.229049
0.235677
0.229872
0.232768
0.217559
0.240796
0.304044
0.700991
0.0189274
0.0205315
0.0207538
0.0212136
0.0221553
0.0242086
0.0263921
0.0279178
0.0348984
0.0213908
0.0623232
0.0539437
0.0481379
0.0514928
0.0524083
0.0477286
0.0477135
0.0461118
0.0435606
0.0419458
0.039379
0.0359215
0.0329503
0.0253746
0.0203894
0.0201893
0.017207
0.019646
0.023816
0.0279763
0.0319217
0.0347348
0.0372995
0.0393572
0.0433101
0.0481214
0.0492582
0.0503444
0.0504831
0.0519776
0.0502343
0.0512753
0.0513074
0.0493752
0.055345
0.0616676
0.0704609
0.0709556
0.0660027
0.0380583
0.269949
0.246067
0.223403
0.192878
0.165991
0.14882
0.135491
0.126501
0.117429
0.112695
0.110167
0.103874
0.0994841
0.0947882
0.0896794
0.0873318
0.0802344
0.0847294
0.122232
0.16031
0.181459
0.227772
0.224403
0.246826
0.378122
0.327985
0.257373
0.188898
0.151315
0.145349
0.140754
0.136499
0.131367
0.12418
0.120333
0.117033
0.114393
0.115878
0.125407
0.123976
0.119194
0.117115
0.124564
0.135671
0.155352
0.18013
0.207303
0.223521
0.261215
0.458442
0.377749
0.252897
0.17094
0.142182
0.14434
0.141919
0.138107
0.132128
0.131622
0.129696
0.126031
0.125681
0.122155
0.120415
0.120356
0.120541
0.119755
0.133634
0.145263
0.151821
0.176539
0.193128
0.235519
0.282307
0.378845
0.419499
0.224303
0.146423
0.138174
0.143963
0.14193
0.141633
0.138807
0.132037
0.133352
0.128326
0.129872
0.129245
0.127549
0.125656
0.126923
0.129345
0.142215
0.139035
0.143259
0.164731
0.189443
0.225114
0.263708
0.334976
0.443892
0.199977
0.137209
0.135463
0.143994
0.149603
0.142716
0.13985
0.139494
0.139094
0.137101
0.135937
0.134098
0.133502
0.137516
0.136238
0.136288
0.143816
0.146308
0.159684
0.152047
0.185271
0.215441
0.245276
0.286671
0.414037
0.174253
0.123827
0.131988
0.134725
0.146031
0.145962
0.151615
0.155844
0.155933
0.157218
0.152735
0.149519
0.151234
0.14927
0.148425
0.144003
0.146091
0.154442
0.163577
0.157276
0.186353
0.202377
0.221802
0.233337
0.387831
0.156073
0.115484
0.129044
0.139133
0.137688
0.145863
0.144685
0.155627
0.161074
0.160993
0.161444
0.159257
0.153637
0.154741
0.15269
0.147957
0.156434
0.160333
0.150793
0.146927
0.161751
0.192661
0.213433
0.205539
0.360533
0.147091
0.110749
0.120315
0.12556
0.136108
0.146213
0.149033
0.144604
0.153539
0.155474
0.157254
0.161546
0.161335
0.159191
0.164277
0.161326
0.161171
0.168753
0.166308
0.161382
0.169289
0.170643
0.205857
0.191507
0.337887
0.148496
0.109764
0.112972
0.120068
0.124217
0.132873
0.139903
0.141759
0.14231
0.140897
0.153357
0.166007
0.175664
0.179278
0.186871
0.18052
0.181434
0.181513
0.18343
0.181718
0.178552
0.181906
0.19189
0.17597
0.324029
0.150262
0.110821
0.112765
0.120102
0.124564
0.130404
0.134359
0.135458
0.136445
0.139815
0.149881
0.164899
0.17623
0.178489
0.185366
0.200054
0.203199
0.205516
0.180354
0.204821
0.169607
0.19642
0.194545
0.169344
0.326214
0.153865
0.113765
0.114451
0.12117
0.12758
0.132535
0.136133
0.134921
0.134147
0.134111
0.14295
0.154162
0.164982
0.175193
0.195642
0.23421
0.236303
0.217944
0.194483
0.195437
0.182691
0.184487
0.199988
0.170962
0.315933
0.159024
0.118426
0.119538
0.119601
0.127165
0.135732
0.141449
0.141063
0.136652
0.144705
0.143278
0.149482
0.16783
0.187697
0.234039
0.263452
0.261225
0.228446
0.209991
0.203741
0.194232
0.199937
0.207031
0.190521
0.314616
0.162267
0.124325
0.127039
0.126746
0.13148
0.140207
0.15269
0.157823
0.151139
0.151001
0.156462
0.163827
0.182643
0.211701
0.255752
0.265001
0.259297
0.233023
0.214556
0.209866
0.198255
0.193264
0.208949
0.269769
0.312881
0.163425
0.128452
0.131316
0.135302
0.134373
0.148014
0.164257
0.18141
0.171504
0.162337
0.164954
0.174323
0.200372
0.23601
0.257701
0.251046
0.261953
0.240483
0.213767
0.203081
0.193939
0.193219
0.219575
0.209807
0.311912
0.162813
0.134067
0.130924
0.135842
0.13544
0.154595
0.171368
0.198951
0.189395
0.170881
0.159178
0.192312
0.231852
0.242472
0.251975
0.231771
0.230889
0.235299
0.210125
0.198784
0.194915
0.214499
0.296151
0.498419
0.309901
0.168582
0.1416
0.140929
0.139304
0.135467
0.144415
0.166432
0.201832
0.217812
0.201543
0.191846
0.196113
0.238069
0.246212
0.249301
0.215309
0.21839
0.225732
0.220896
0.206521
0.226037
0.258707
0.318332
0.537861
0.309804
0.168888
0.147308
0.146013
0.150641
0.150276
0.149966
0.166055
0.209111
0.240051
0.249602
0.252993
0.245509
0.250071
0.259932
0.232101
0.234936
0.211313
0.213377
0.230413
0.230504
0.259477
0.291402
0.327011
0.556593
0.312146
0.186105
0.161885
0.15985
0.15871
0.167808
0.170778
0.171758
0.197336
0.238973
0.278195
0.283092
0.280993
0.270691
0.269023
0.231448
0.203645
0.199357
0.208658
0.224559
0.249706
0.29158
0.296765
0.344922
0.509972
0.315689
0.180282
0.163188
0.164898
0.184505
0.200962
0.210832
0.199793
0.196786
0.205659
0.223987
0.245616
0.263112
0.264783
0.245529
0.219656
0.198266
0.22781
0.21223
0.233339
0.264825
0.26513
0.282201
0.342534
0.458585
0.333885
0.198715
0.187479
0.214639
0.244256
0.278309
0.304191
0.303954
0.225653
0.203391
0.189528
0.183698
0.203394
0.218271
0.224922
0.223753
0.222906
0.228278
0.242865
0.245529
0.287866
0.281478
0.276916
0.286755
0.381164
0.366045
0.21619
0.223021
0.277836
0.335798
0.374205
0.409035
0.415136
0.333854
0.241827
0.191324
0.16776
0.170869
0.185164
0.2112
0.21814
0.227648
0.231894
0.249454
0.255425
0.255679
0.262718
0.273788
0.241599
0.331834
0.356254
0.239456
0.31358
0.341108
0.337124
0.409079
0.4511
0.498306
0.457424
0.360801
0.244359
0.171335
0.161593
0.182552
0.192036
0.20789
0.223357
0.231606
0.249216
0.261497
0.26244
0.257735
0.240005
0.198701
0.164455
0.383187
0.256289
0.302772
0.366532
0.413278
0.371062
0.265275
0.194993
0.220232
0.32831
0.271793
0.178161
0.169644
0.185005
0.193484
0.207062
0.216864
0.229488
0.241837
0.259334
0.254128
0.265934
0.294235
0.28879
0.21636
0.0197926
0.0215599
0.021794
0.0228622
0.0247294
0.026606
0.0276736
0.0301231
0.0341367
0.0314765
0.0478551
0.0513352
0.0499521
0.0496949
0.0453559
0.0446899
0.044418
0.0436129
0.043391
0.0416211
0.0404663
0.0375042
0.0351664
0.0255721
0.0219996
0.020441
0.0179299
0.0206422
0.0239323
0.0292934
0.0326511
0.0357279
0.0382264
0.0412152
0.0459508
0.0502147
0.0556648
0.0574217
0.0588061
0.0564905
0.0563881
0.054203
0.053104
0.0543489
0.0731486
0.0668675
0.0793704
0.0797371
0.0785731
0.052976
0.262702
0.249239
0.228959
0.191468
0.164786
0.147503
0.140873
0.126418
0.115928
0.104634
0.0966148
0.0946365
0.090042
0.083877
0.0891461
0.101041
0.105619
0.127832
0.150999
0.185368
0.214695
0.275282
0.245558
0.354625
0.254597
0.313413
0.266782