/*--------------------------------*- C++ -*----------------------------------*\
  =========                 |
  \\      /  F ield         | OpenFOAM: The Open Source CFD Toolbox
   \\    /   O peration     | Website:  https://openfoam.org
    \\  /    A nd           | Version:  11
     \\/     M anipulation  |
\*---------------------------------------------------------------------------*/
FoamFile
{
    format      ascii;
    class       volScalarField;
    location    "5";
    object      p;
}
// * * * * * * * * * * * * * * * * * * * * * * * * * * * * * * * * * * * * * //

dimensions      [0 2 -2 0 0 0 0];

internalField   nonuniform List<scalar> 
17196
(
-2.12594
1.99329
3.64078
0.410339
-8.15184
-19.5606
-31.5768
-42.3904
-50.7435
-55.9876
-58.3931
-58.4217
-56.7122
-53.3261
-48.5733
-43.1824
-37.2702
-31.8784
-28.5565
-26.0796
-23.3676
-20.0948
-15.284
-9.7162
-3.15344
-1.93415
0.769464
1.27313
-3.1438
-12.4308
-23.9098
-35.3787
-45.417
-53.0107
-57.6391
-59.5416
-59.2419
-57.3194
-53.9022
-49.2368
-43.8537
-37.7567
-31.9062
-28.6943
-26.3184
-23.4718
-20.0524
-15.3614
-9.98098
-3.51293
-2.18091
-0.653218
-1.5025
-7.57268
-17.899
-29.3906
-40.1685
-49.3114
-56.0548
-60.004
-61.3526
-60.5879
-58.3081
-54.7014
-49.9444
-44.2558
-37.8182
-31.6917
-27.899
-25.7263
-23.0024
-19.3591
-14.7876
-9.93737
-3.67726
-2.78718
-1.90035
-4.17484
-12.1286
-23.6569
-35.3211
-45.5598
-53.8923
-59.8466
-63.1358
-63.9317
-62.682
-59.9765
-56.0812
-51.1552
-45.2728
-38.678
-32.3665
-27.9838
-25.661
-22.9222
-19.0186
-14.3733
-9.72734
-3.63853
-3.35538
-2.8438
-6.67894
-16.5442
-29.2633
-41.1795
-51.0145
-58.6361
-63.8528
-66.5092
-66.7705
-65.0402
-61.9401
-57.7939
-52.7565
-46.8519
-40.2844
-33.8678
-28.9713
-26.0201
-23.0417
-18.9707
-14.2375
-9.7546
-3.65386
-3.84597
-3.6179
-9.23725
-21.026
-34.7892
-46.9583
-56.4515
-63.4327
-67.9686
-70.0342
-69.7907
-67.6461
-64.2693
-59.9867
-54.9359
-49.0789
-42.6268
-36.1869
-30.8059
-27.0142
-23.3812
-18.934
-14.1958
-10.0994
-4.61066
-4.14683
-4.15963
-11.7971
-25.5458
-40.1919
-52.5362
-61.6938
-68.0768
-72.0015
-73.5579
-72.8945
-70.4306
-66.8717
-62.5477
-57.5351
-51.8187
-45.596
-39.2142
-33.2902
-28.5242
-24.0607
-19.0479
-14.1623
-10.0828
-4.7211
-4.21721
-4.49969
-14.2524
-29.9919
-45.4823
-57.9118
-66.7343
-72.5466
-75.9161
-77.0621
-76.1096
-73.4623
-69.8347
-65.5539
-60.6555
-55.1962
-49.3167
-43.103
-36.7107
-30.8584
-25.3406
-19.5903
-14.3539
-9.93579
-4.63447
-3.95947
-4.50787
-16.3013
-33.9454
-50.3572
-62.877
-71.3764
-76.651
-79.5037
-80.2929
-79.1453
-76.4132
-72.8106
-68.6808
-64.0601
-59.0647
-53.7064
-47.824
-41.1388
-34.1568
-27.4182
-20.5502
-14.67
-9.7982
-4.7466
-3.58882
-4.31291
-17.8248
-37.1258
-54.4679
-67.261
-75.556
-80.3326
-82.6407
-83.0322
-81.677
-78.8895
-75.396
-71.5932
-67.503
-63.2313
-58.6845
-53.4088
-46.7697
-38.9332
-30.6707
-22.4734
-15.3339
-9.52991
-4.67728
-2.90955
-3.83465
-18.7496
-39.3507
-57.4762
-70.7051
-79.0234
-83.4226
-85.1031
-84.9379
-83.2324
-80.3179
-76.991
-73.6929
-70.4342
-67.1841
-63.7705
-59.4572
-53.2831
-45.0494
-35.4568
-25.5702
-16.8399
-9.63948
-4.16085
-1.91066
-3.18239
-19.1812
-40.6911
-59.4213
-73.1226
-81.6511
-85.831
-86.866
-85.9048
-83.5746
-80.3598
-77.1824
-74.4874
-72.2533
-70.3012
-68.3358
-65.3814
-60.1907
-52.0213
-41.5579
-30.1393
-19.5522
-10.62
-3.98129
-0.49993
-2.3864
-19.1398
-41.2701
-60.466
-74.5925
-83.3474
-87.3455
-87.7623
-85.8456
-82.5799
-78.8159
-75.6413
-73.5131
-72.3603
-71.8536
-71.5357
-70.3131
-66.5868
-59.085
-48.2973
-35.6743
-23.3835
-12.5198
-4.3805
1.15068
-1.416
-18.5538
-41.1859
-60.8729
-75.3323
-84.2167
-87.9548
-87.6839
-84.7181
-80.2811
-75.6654
-72.2265
-70.4732
-70.3031
-71.2217
-72.6408
-73.3749
-71.4984
-65.3248
-54.9147
-41.6624
-27.9513
-15.1907
-5.19963
2.86457
-0.20865
-17.4068
-40.4326
-60.7144
-75.4672
-84.3439
-87.7049
-86.6214
-82.5067
-76.7685
-71.0528
-67.0437
-65.3594
-65.9131
-68.1015
-71.2097
-73.9489
-74.1453
-69.8443
-60.5832
-47.4261
-32.7507
-18.2326
-6.27375
4.31621
0.932209
-15.8862
-39.0517
-59.9464
-75.0354
-83.8278
-86.6988
-84.7163
-79.3656
-72.2632
-65.2705
-60.4254
-58.424
-59.3172
-62.4296
-66.9861
-71.6116
-74.0372
-72.0252
-64.6413
-52.4021
-37.418
-21.3985
-7.4525
5.3725
1.76572
-14.2677
-37.2249
-58.5677
-74.0097
-82.6836
-85.0038
-82.0914
-75.5151
-67.0899
-58.829
-53.0143
-50.4335
-51.2872
-54.9814
-60.6395
-66.828
-71.399
-71.9662
-66.9439
-56.3284
-41.6212
-24.4566
-8.64251
5.9079
2.20859
-12.7432
-35.1447
-56.6414
-72.3556
-80.8956
-82.6717
-78.8778
-71.1802
-61.5579
-52.1683
-45.4172
-42.1888
-42.8078
-46.8309
-53.3473
-60.7779
-67.1964
-70.1964
-67.7732
-59.1998
-45.2195
-27.2838
-9.80981
5.88624
2.3411
-11.4206
-32.9912
-54.3199
-70.1207
-78.5061
-79.7853
-75.2265
-66.5892
-55.9857
-45.6392
-38.0409
-34.1562
-34.4753
-38.6888
-45.9532
-54.499
-62.5813
-67.7284
-67.7267
-61.1486
-48.0925
-29.782
-10.9573
5.30104
2.16726
-10.3147
-30.8046
-51.7115
-67.4019
-75.6236
-76.4854
-71.3309
-61.9764
-50.6449
-39.5439
-31.1563
-26.5601
-26.4753
-30.7703
-38.6608
-48.2433
-57.7488
-64.7802
-66.8801
-62.0903
-50.0855
-31.8033
-12.0686
4.34523
1.71602
-9.39757
-28.6219
-48.9229
-64.4051
-72.4558
-73.0211
-67.4364
-57.6286
-45.8494
-34.2485
-25.1079
-19.6834
-18.9783
-23.1499
-31.4308
-41.8764
-52.6088
-61.2807
-65.1361
-61.8165
-50.9125
-33.1406
-13.0459
3.23888
1.03691
-8.69379
-26.5701
-46.1854
-61.4393
-69.3699
-69.7266
-63.8534
-53.7791
-41.8679
-30.096
-20.3848
-14.0322
-12.4589
-16.1593
-24.4798
-35.4361
-47.1107
-56.9944
-62.0253
-59.6727
-50.0788
-33.4689
-13.6222
2.266
0.330398
-8.20709
-24.7923
-43.7548
-58.8269
-66.7136
-66.8874
-60.7458
-50.4896
-38.8437
-27.3988
-17.5064
-10.37
-7.83562
-10.788
-18.7298
-29.7622
-41.9001
-52.2923
-57.489
-55.2399
-47.1212
-32.773
-13.6955
1.60693
-0.217661
-7.91019
-23.5483
-42.0087
-56.9446
-64.671
-64.5018
-57.8847
-47.5056
-36.5496
-26.118
-16.5973
-9.25064
-6.1043
-8.41694
-15.7233
-26.3651
-38.2753
-48.2923
-52.6429
-49.9146
-43.4044
-31.8405
-13.7421
1.26685
-0.55164
-7.80728
-22.9198
-40.9677
-55.5399
-62.9135
-62.4053
-55.587
-45.5076
-35.1632
-25.4454
-16.3412
-9.19789
-6.02915
-8.18293
-15.1987
-25.4974
-36.9967
-46.4849
-50.4374
-47.959
-41.9486
-31.5295
-13.0359
-1.93183
0.34292
-0.890678
-7.0801
-17.174
-29.1358
-41.2046
-51.8904
-59.8479
-64.2117
-64.9839
-62.8447
-59.0568
-54.4491
-49.328
-43.6103
-36.8739
-30.5126
-25.8181
-22.8476
-20.2689
-18.4195
-15.8286
-10.7485
-3.91997
-1.80731
-0.948192
-3.41625
-11.0664
-22.193
-34.2444
-45.7137
-55.6172
-62.8804
-66.7262
-67.0481
-64.4373
-60.2111
-55.3684
-50.3558
-44.8737
-38.5124
-32.5747
-28.455
-24.881
-21.1077
-17.5581
-14.1111
-9.28722
-3.17789
-2.04833
-1.80326
-5.44107
-14.7176
-26.8898
-39.0201
-49.9663
-59.2001
-65.8596
-69.2384
-69.1559
-66.0848
-61.3814
-56.3432
-51.4467
-45.9804
-39.6024
-33.6836
-29.791
-26.2791
-21.6137
-16.4852
-11.6575
-7.0883
-2.06552
-2.48126
-2.62547
-7.78294
-18.8865
-32.0673
-44.3347
-54.9053
-63.565
-69.6603
-72.5457
-72.1446
-68.7634
-63.7768
-58.6508
-53.9036
-48.5096
-41.9608
-35.626
-31.338
-27.6685
-22.5927
-16.6789
-11.2129
-6.88847
-2.05941
-2.7534
-3.59658
-10.6867
-23.5499
-37.5019
-49.8467
-60.0543
-68.1071
-73.5928
-75.959
-75.1817
-71.67
-66.8007
-61.8565
-57.2642
-51.9935
-45.3759
-38.4557
-33.3151
-29.2157
-23.8426
-17.4205
-11.6741
-7.52415
-2.5653
-2.82266
-4.82335
-14.3143
-28.702
-43.1957
-55.6032
-65.4655
-72.8578
-77.7018
-79.5564
-78.4147
-74.892
-70.326
-65.7222
-61.2445
-56.0299
-49.6151
-42.3325
-36.1453
-31.2562
-25.464
-18.5415
-12.4349
-8.23019
-3.3855
-2.85487
-6.44493
-18.545
-34.1756
-48.9818
-61.3873
-70.9022
-77.5927
-81.799
-83.2178
-81.8424
-78.3909
-74.1374
-69.7877
-65.385
-60.4638
-54.5525
-47.3045
-40.1198
-34.0953
-27.6102
-20.1073
-13.323
-8.58882
-3.52133
-3.28517
-8.4331
-22.9794
-39.7306
-54.6994
-66.9379
-76.0658
-82.083
-85.678
-86.7696
-85.3601
-82.1329
-78.2023
-74.031
-69.709
-65.2587
-60.175
-53.403
-45.5842
-38.1658
-30.5324
-22.1122
-14.4154
-8.63946
-3.19836
-4.02842
-10.5619
-27.1355
-44.8801
-59.9767
-71.8985
-80.5517
-85.9516
-88.9712
-89.8461
-88.5997
-85.743
-82.2208
-78.4718
-74.531
-70.7935
-66.6714
-60.7898
-52.7382
-43.8719
-34.4915
-24.7566
-16.0015
-8.88457
-2.94898
-4.89789
-12.4432
-30.5865
-49.132
-64.4232
-76.0892
-84.2613
-89.0574
-91.456
-92.1084
-91.0931
-88.7294
-85.8594
-83.0605
-80.1467
-77.4688
-74.5739
-69.7354
-61.9092
-51.9146
-40.4173
-28.5767
-18.2841
-9.78244
-2.95086
-5.43057
-13.802
-33.1094
-52.2286
-67.7761
-79.3897
-87.1716
-91.3874
-93.033
-93.234
-92.331
-90.4583
-88.4847
-87.0009
-85.7375
-84.5297
-82.9579
-79.4238
-72.3983
-61.944
-48.881
-34.6678
-21.8435
-11.2434
-3.43421
-5.40595
-14.5468
-34.6868
-54.2146
-70.0176
-81.7532
-89.2882
-93.0246
-93.8652
-93.2139
-91.9701
-90.3729
-89.2822
-89.155
-89.6188
-90.0169
-89.9976
-88.2474
-82.7996
-72.7415
-58.9689
-42.9924
-27.5122
-13.9234
-4.24681
-4.642
-14.542
-35.2987
-55.3061
-71.4139
-83.3703
-90.7735
-94.0141
-94.0054
-92.1775
-89.9638
-88.1502
-87.6228
-88.6247
-90.4616
-92.1251
-93.4454
-93.6272
-90.3583
-81.6992
-68.3982
-51.6878
-34.2574
-17.8103
-5.48237
-3.2621
-13.6396
-34.9248
-55.636
-72.2343
-84.4528
-91.8061
-94.507
-93.4524
-90.1448
-86.4071
-83.6967
-83.1318
-84.727
-87.4073
-89.862
-92.1891
-94.3579
-93.8693
-87.731
-75.7626
-59.1944
-40.7701
-22.1153
-7.06289
-1.43586
-12.0662
-33.8085
-55.3225
-72.6672
-85.2129
-92.476
-94.5282
-92.2089
-87.1532
-81.5129
-77.2927
-75.9572
-77.3889
-80.3182
-83.2528
-86.4458
-90.4718
-92.7164
-89.8066
-80.3245
-64.885
-46.193
-26.0523
-8.62174
0.449064
-10.2476
-32.2329
-54.4779
-72.715
-85.6855
-92.784
-94.0377
-90.3074
-83.3535
-75.6508
-69.5333
-66.797
-67.3051
-70.0479
-73.5541
-77.8751
-83.4458
-87.9021
-88.0383
-81.7866
-68.7005
-50.6474
-29.4884
-10.0088
2.10594
-8.53839
-30.4608
-53.3116
-72.3861
-85.828
-92.6777
-93.0056
-87.7963
-78.9752
-69.2843
-61.3006
-56.9781
-56.2508
-58.5887
-62.8526
-68.5594
-75.3222
-81.3261
-83.8674
-80.651
-70.6863
-54.2673
-32.4435
-11.1888
3.36505
-7.02337
-28.5948
-51.8531
-71.5933
-85.4157
-91.9736
-91.3298
-84.6952
-74.1838
-62.7707
-53.2741
-47.7327
-46.0642
-48.0443
-52.9741
-59.842
-67.4876
-74.6138
-79.0058
-78.3361
-71.4695
-57.1041
-34.9481
-12.2735
4.17065
-5.72193
-26.6872
-50.1243
-70.3094
-84.3321
-90.5403
-88.9462
-81.0363
-69.117
-56.3049
-45.6022
-39.2117
-37.0514
-38.9164
-44.3663
-52.2
-60.7063
-68.904
-74.8715
-76.3034
-71.7446
-58.9888
-36.9135
-13.3406
4.39689
-4.65004
-24.6825
-48.0034
-68.4458
-82.5117
-88.3167
-85.885
-76.9361
-63.9725
-50.0883
-38.349
-31.1267
-28.6271
-30.634
-36.7489
-45.6202
-55.2121
-64.4734
-71.6097
-74.4517
-71.3932
-59.8404
-38.2829
-14.3613
4.12338
-3.75579
-22.4475
-45.4011
-65.9644
-79.984
-85.4083
-82.3253
-72.6825
-59.082
-44.5362
-31.959
-23.8177
-20.7891
-22.9747
-29.821
-39.742
-50.4499
-60.6743
-68.6693
-72.4398
-70.3119
-59.775
-39.0038
-15.2616
3.48334
-3.00525
-19.8507
-42.1186
-62.6501
-76.6422
-81.8733
-78.5045
-68.5956
-54.8285
-40.1021
-27.0396
-17.9481
-14.0192
-16.0195
-23.3315
-34.062
-45.7505
-56.8117
-65.4633
-69.8007
-68.2395
-58.6984
-39.0535
-15.8911
2.61591
-2.43799
-17.0749
-38.2841
-58.6729
-72.775
-78.1154
-74.8448
-65.0635
-51.5709
-37.2864
-24.3619
-14.5147
-9.29931
-10.3795
-17.4501
-28.3962
-40.678
-52.3484
-61.3067
-65.5504
-64.0323
-55.9758
-38.4977
-15.8642
1.80526
-2.02764
-14.5886
-34.6389
-54.8256
-69.0583
-74.5642
-71.4622
-61.9645
-49.1163
-36.0494
-24.2437
-14.2966
-7.75121
-7.26675
-13.0945
-23.3653
-35.5264
-47.1988
-55.8408
-59.2685
-57.4103
-51.4211
-37.4068
-15.6654
1.28637
-1.81029
-12.949
-32.0265
-51.7508
-65.7561
-71.2013
-68.2747
-59.1895
-47.0728
-34.9661
-24.0651
-14.7405
-8.09414
-6.59212
-11.0628
-20.3055
-31.9479
-43.3408
-51.7801
-54.9277
-52.9033
-47.9777
-36.5186
-15.3246
-1.75201
-1.014
-4.7497
-13.3847
-24.6805
-36.9043
-48.809
-58.9847
-66.1447
-69.1224
-67.7227
-63.3416
-58.3014
-53.8142
-49.4068
-43.0648
-34.5253
-26.3715
-22.6973
-20.0437
-17.0936
-16.8955
-18.1256
-10.0791
-1.34667
-1.779
-1.71469
-6.56858
-16.524
-28.5324
-40.6143
-52.0339
-61.6708
-68.1559
-70.8048
-69.3189
-64.7413
-59.3188
-54.683
-50.9309
-45.9925
-38.3965
-30.0005
-24.9931
-21.8522
-18.245
-16.8644
-17.1695
-8.84343
-0.616147
-1.86983
-2.24365
-8.55826
-19.8809
-32.2131
-43.8783
-54.7785
-63.9736
-69.7886
-71.8983
-70.2984
-65.5745
-60.0388
-55.9071
-52.8834
-48.6187
-41.969
-34.6262
-28.5962
-23.7905
-18.8318
-15.371
-13.1161
-4.87105
1.50813
-1.78565
-2.99426
-11.3487
-24.2742
-36.8508
-48.1645
-58.5668
-67.3491
-72.6946
-74.2222
-72.3516
-67.7123
-62.6809
-59.4023
-57.0999
-53.3388
-46.54
-38.8826
-32.2143
-26.4868
-20.2729
-14.6993
-9.99213
-2.57428
2.63267
-1.37926
-4.13463
-15.0068
-29.1666
-41.8081
-52.8955
-62.7714
-70.9491
-75.8794
-77.081
-75.1498
-71.0284
-66.9977
-64.3437
-62.1518
-58.9863
-52.4372
-43.858
-35.968
-29.3691
-22.0348
-14.8329
-8.92211
-2.3616
2.7386
-1.15964
-6.33102
-19.7297
-34.3956
-46.9954
-58.0385
-67.4075
-74.7411
-79.1006
-80.1456
-78.586
-75.4929
-72.6876
-70.4449
-67.8724
-64.6015
-59.0195
-50.2654
-40.8654
-32.8821
-24.28
-15.5438
-8.79697
-2.80977
2.27848
-2.10356
-9.90065
-25.1977
-39.7911
-52.3243
-63.3995
-72.2399
-78.5115
-82.1672
-83.2065
-82.3652
-80.5475
-78.8919
-76.9616
-74.3099
-70.8093
-66.0125
-57.7272
-46.9602
-37.4053
-27.5722
-17.2737
-9.11974
-2.99289
1.94258
-4.28763
-14.2278
-30.6626
-45.2551
-57.7442
-68.6521
-76.8947
-82.1359
-85.1667
-86.5023
-86.8009
-86.4613
-85.864
-84.1675
-81.262
-78.0112
-73.9249
-66.0865
-54.6695
-43.5112
-32.2464
-20.4057
-10.4863
-3.24425
1.98358
-7.0068
-18.4448
-35.4215
-50.2416
-62.7488
-73.2559
-80.8942
-85.3441
-88.0198
-90.0274
-91.8492
-93.1407
-93.6098
-92.4158
-89.452
-86.0512
-82.2554
-74.6441
-62.9949
-50.8318
-38.0151
-24.7234
-13.4164
-4.80233
0.838837
-9.57324
-21.8031
-39.056
-54.1717
-66.8469
-76.9814
-84.1685
-88.1389
-90.6675
-93.5413
-96.9544
-99.9279
-101.6
-101.2
-98.809
-95.7306
-92.1244
-85.4223
-73.7573
-60.7242
-46.3937
-31.4933
-18.5107
-8.58623
-1.05393
-11.3389
-23.9139
-41.3761
-56.7737
-69.7221
-79.7531
-86.6942
-90.538
-92.8993
-96.3109
-101.069
-105.59
-108.582
-108.973
-107.153
-104.636
-101.538
-95.9131
-85.9266
-72.7744
-57.5888
-41.1471
-25.8228
-13.0785
-2.5712
-11.9327
-24.7105
-42.4085
-58.2301
-71.5024
-81.7875
-88.7191
-92.5574
-94.5876
-97.7055
-103.137
-108.928
-113.133
-114.14
-112.565
-110.233
-107.369
-102.81
-95.0453
-83.2375
-68.4406
-51.0013
-33.3331
-17.2703
-4.2571
-11.1462
-24.1484
-42.3549
-58.9103
-72.6733
-83.3571
-90.3873
-94.0395
-95.4221
-97.4406
-102.404
-108.774
-113.755
-115.146
-113.518
-111.133
-108.629
-105.804
-100.28
-90.2841
-76.856
-59.6218
-40.4744
-21.5421
-6.0118
-9.18465
-22.3924
-41.5337
-59.2084
-73.771
-84.9367
-92.0683
-95.2453
-95.3931
-95.4629
-98.6336
-104.34
-109.353
-110.861
-109.144
-106.399
-104.165
-103.758
-102.105
-94.7881
-82.5635
-65.7782
-45.8077
-24.7794
-7.20933
-6.39752
-20.0794
-40.398
-59.3634
-74.9823
-86.7061
-93.8545
-96.2929
-94.7166
-92.068
-92.212
-95.773
-99.7555
-101.074
-99.6648
-97.136
-95.6552
-97.3488
-99.343
-95.9537
-86.0026
-70.0881
-49.7002
-27.0883
-7.89952
-3.37667
-17.8296
-39.3561
-59.5563
-76.3489
-88.7413
-95.7595
-97.2078
-93.6443
-87.8499
-84.1236
-84.2191
-86.144
-86.8641
-86.1648
-84.9022
-85.3545
-88.709
-93.0617
-93.0485
-86.2443
-72.3545
-52.78
-29.331
-8.81847
-0.656027
-15.9438
-38.6477
-59.9467
-77.8092
-90.8091
-97.5448
-97.7906
-92.2101
-83.365
-75.7239
-71.9859
-71.305
-71.0146
-71.0782
-71.9575
-75.3633
-80.3731
-85.5547
-87.4617
-83.5923
-72.701
-55.4606
-32.1112
-10.1793
1.55428
-14.4411
-38.1527
-60.4199
-79.1399
-92.5681
-98.9112
-97.8007
-90.2138
-78.7577
-67.9517
-61.1984
-58.5062
-57.4446
-58.0211
-60.9006
-66.5554
-72.4352
-77.4783
-80.4489
-79.4478
-72.4141
-58.0653
-35.0596
-11.8246
3.15122
-13.2132
-37.6044
-60.7178
-80.0351
-93.6581
-99.4782
-96.9156
-87.3385
-73.7291
-60.5785
-51.8111
-48.01
-46.7567
-47.7667
-51.9479
-58.6841
-64.8612
-70.0066
-74.0751
-75.5673
-71.9757
-60.073
-37.5406
-13.1446
3.97391
-12.1167
-36.7821
-60.5172
-80.3422
-93.9545
-99.0856
-94.9793
-83.4752
-68.0473
-53.0776
-42.6504
-38.0892
-37.1388
-38.9789
-44.1438
-51.6433
-58.6426
-64.5746
-69.5431
-72.3868
-70.9824
-60.9979
-39.2613
-14.1443
4.21933
-10.9332
-35.4434
-59.7294
-80.0694
-93.5776
-97.8069
-92.1862
-78.9705
-62.1164
-45.8701
-34.047
-28.6827
-28.1148
-31.012
-37.4317
-46.1006
-54.3621
-61.2237
-66.5585
-69.7215
-69.3374
-60.9946
-40.2543
-15.0141
4.09839
-9.36094
-33.2269
-58.1033
-78.9807
-92.3499
-95.7132
-88.9449
-74.6302
-56.8865
-39.8748
-27.1404
-20.9034
-20.5569
-24.4617
-31.9905
-41.8295
-51.4047
-59.1674
-64.6132
-67.6022
-67.4836
-60.4289
-40.8865
-15.3333
3.68318
-7.30678
-29.6792
-54.8849
-76.3124
-89.6403
-92.5801
-85.4049
-70.9579
-53.2238
-36.1314
-22.804
-15.3761
-14.3605
-18.8127
-27.2781
-38.0913
-48.7594
-57.3668
-62.9179
-65.5023
-65.118
-58.9238
-41.1654
-16.0668
3.04402
-5.19133
-25.1423
-50.1511
-71.9626
-85.3862
-88.2274
-81.2379
-67.54
-51.1134
-35.3706
-22.1847
-13.2705
-10.3305
-13.9264
-22.5891
-33.89
-45.2486
-54.3276
-59.7156
-61.7511
-60.8488
-55.6382
-40.6828
-16.4149
2.37227
-3.76859
-21.2625
-45.3681
-66.842
-80.0283
-82.9379
-76.531
-63.9261
-48.935
-34.7154
-22.5522
-13.4532
-8.8422
-10.8097
-18.4053
-29.1295
-40.2979
-49.4173
-54.9159
-56.9809
-55.8064
-51.4975
-39.7222
-16.3185
-1.93534
-1.7127
-7.44562
-17.7079
-29.6524
-42.3777
-54.6797
-65.0514
-71.868
-72.8798
-68.4241
-62.537
-58.167
-55.7278
-53.2028
-47.2874
-37.705
-29.0145
-24.1322
-19.553
-15.0303
-14.8422
-18.1051
-18.1953
-16.4845
-2.06869
-2.22546
-9.19997
-20.5838
-32.9237
-45.4551
-57.3746
-67.0502
-73.2715
-74.4327
-70.5184
-64.494
-59.692
-57.4273
-55.9146
-51.631
-42.5937
-32.4646
-25.9701
-20.6677
-15.75
-15.3185
-19.3345
-17.3474
-15.4176
-1.95791
-2.9024
-11.7574
-24.0601
-36.0265
-47.8564
-59.433
-68.4396
-73.4753
-74.6572
-71.5926
-66.0627
-61.7654
-60.5684
-59.6776
-55.5607
-47.3341
-37.7641
-29.6069
-22.4167
-16.4309
-14.3774
-17.1293
-14.0214
-14.5997
-1.26474
-3.93444
-15.2867
-28.5707
-40.0438
-51.3077
-62.5652
-71.4027
-75.681
-76.4193
-73.8648
-69.3812
-66.2571
-65.9045
-65.2015
-60.7942
-52.1903
-42.1434
-33.3259
-25.4206
-18.6926
-14.7459
-14.1151
-9.20679
-9.49313
-0.724954
-6.12444
-19.9572
-33.5538
-44.4791
-55.385
-66.1326
-74.8145
-79.2358
-79.908
-77.5538
-73.8596
-71.9589
-71.8798
-70.6074
-66.4254
-57.5282
-46.5858
-37.1788
-29.1968
-21.6141
-15.6233
-12.4196
-6.81241
-4.84112
-1.98119
-10.4915
-25.6368
-38.6731
-49.2167
-59.8642
-70.0374
-78.2201
-83.0828
-84.3698
-82.8257
-80.2897
-79.5326
-79.4133
-77.1231
-72.982
-64.5435
-52.9422
-42.5051
-33.5607
-24.6635
-16.6289
-11.6274
-6.39505
-2.45967
-5.2108
-16.4987
-31.685
-43.848
-54.1988
-64.6296
-74.2288
-81.6387
-86.6777
-89.0721
-88.8819
-87.8389
-88.371
-88.092
-85.2014
-80.5459
-72.9375
-61.3381
-49.8339
-39.4314
-28.7997
-18.4585
-11.2549
-6.10465
-0.386611
-9.64736
-22.6435
-37.1866
-48.9663
-59.2279
-69.5032
-78.642
-85.4949
-90.7433
-94.464
-96.0836
-96.7757
-98.3488
-97.5493
-93.8675
-89.3015
-82.0361
-70.5823
-58.4189
-46.8583
-34.4595
-21.7398
-11.5502
-5.54669
1.38831
-14.1363
-27.3989
-41.261
-53.2606
-63.6054
-73.8294
-82.8759
-89.5625
-95.3751
-100.597
-104.073
-106.399
-108.75
-107.4
-102.935
-98.8564
-92.7385
-80.5014
-67.5596
-55.2693
-41.2645
-26.3815
-13.5359
-5.05751
3.20387
-17.6663
-29.923
-43.4701
-56.0434
-66.7871
-77.0016
-86.2843
-93.2171
-99.6014
-106.556
-112.027
-115.801
-118.633
-116.945
-111.442
-107.834
-104.011
-92.677
-78.3953
-64.692
-49.0671
-32.1501
-17.3707
-6.05157
2.8546
-19.4758
-30.3303
-44.0867
-57.36
-68.7575
-79.1151
-88.4949
-95.9758
-102.872
-111.326
-118.849
-123.909
-126.983
-125.789
-119.627
-115.367
-110.948
-102.701
-89.6325
-74.5392
-57.2747
-39.0488
-22.8158
-9.2593
0.820898
-19.2896
-29.1835
-43.6307
-57.7434
-69.7951
-80.4458
-89.8127
-97.6915
-104.98
-114.064
-123.169
-129.165
-131.966
-131.087
-125.773
-121.156
-115.565
-108.696
-98.0009
-83.7453
-66.4865
-47.943
-29.944
-13.4692
-1.2811
-17.1536
-26.861
-42.478
-57.6354
-70.3629
-81.3577
-90.6182
-98.4107
-105.702
-114.422
-123.694
-130.089
-132.573
-131.28
-126.808
-121.801
-116.239
-110.649
-102.613
-91.0118
-75.6114
-57.2325
-37.3608
-17.5928
-2.81599
-13.4578
-23.7376
-40.9114
-57.4325
-71.0952
-82.464
-91.5146
-98.6942
-105.091
-112.343
-120.054
-125.809
-128.096
-126.74
-122.961
-117.315
-111.309
-107.265
-102.289
-94.1113
-81.7855
-64.4986
-43.4622
-20.9192
-3.94784
-8.78679
-20.5256
-39.4977
-57.4722
-72.2928
-84.2376
-93.0068
-99.0642
-103.602
-108.153
-112.815
-116.469
-118.121
-116.876
-114.031
-108.866
-102.934
-100.117
-98.0745
-92.8884
-83.8807
-68.7986
-47.8103
-23.8566
-5.08042
-4.00111
-17.7875
-38.6718
-58.0849
-74.2202
-86.9076
-95.3965
-99.9405
-101.89
-102.825
-103.352
-103.385
-103.22
-101.768
-99.8993
-96.581
-92.2513
-90.1896
-90.6088
-87.9852
-81.7735
-69.5655
-50.4518
-26.625
-6.08432
0.141431
-15.9263
-38.6251
-59.3576
-76.8182
-90.3075
-98.509
-101.321
-100.39
-97.4937
-93.56
-89.0823
-85.815
-83.5469
-82.3167
-81.522
-81.158
-80.7367
-81.3969
-79.8267
-75.8403
-66.57
-51.1919
-30.0188
-8.6695
3.33535
-14.9628
-39.3476
-61.4062
-80.0621
-94.2026
-101.922
-102.765
-98.8879
-92.7086
-85.3856
-77.384
-71.1047
-67.6204
-66.9541
-68.3459
-71.3305
-72.3064
-72.3509
-70.9733
-68.4385
-62.7171
-52.0775
-33.7771
-11.2015
5.36303
-14.6574
-40.5211
-63.9456
-83.6211
-98.0725
-104.946
-103.485
-96.4374
-87.4939
-78.3654
-68.8065
-60.5239
-56.0905
-55.9298
-58.8017
-62.7159
-64.6132
-64.567
-63.8237
-62.6231
-60.4224
-53.6057
-37.1165
-13.1315
6.21129
-14.6619
-41.5978
-66.2524
-86.8161
-101.229
-106.946
-102.956
-92.2791
-80.1974
-69.7062
-60.1031
-51.3956
-46.6128
-46.8454
-50.5971
-55.1622
-57.9712
-58.8845
-59.1864
-59.3109
-59.2464
-54.666
-39.5926
-14.4941
6.37105
-14.5606
-41.9722
-67.4374
-88.6669
-102.87
-107.344
-101.027
-86.8722
-71.1648
-58.7076
-49.2946
-41.6603
-37.6356
-38.5055
-43.1394
-48.8306
-52.8045
-54.8126
-56.0883
-57.2901
-58.1147
-54.862
-41.185
-15.2475
6.43597
-13.5571
-41.2383
-67.2248
-88.9467
-103.101
-106.485
-98.3216
-81.5956
-62.7402
-47.797
-38.031
-31.7017
-29.2071
-31.1314
-36.8095
-43.9918
-49.4793
-52.4874
-54.343
-56.0017
-57.1691
-54.856
-42.2516
-15.5721
6.43856
-11.1233
-38.8606
-65.8489
-88.2623
-102.459
-105.017
-95.5993
-77.7002
-57.4233
-40.4031
-29.2392
-23.1196
-21.737
-24.9871
-31.6894
-40.1857
-47.4307
-51.776
-53.8841
-55.4463
-56.6871
-54.802
-42.8139
-15.7566
6.31334
-7.59543
-34.2786
-62.6309
-85.8828
-100.032
-101.885
-92.0865
-74.7753
-55.3148
-38.0238
-25.3536
-17.9299
-15.9707
-19.8196
-27.4142
-37.0101
-46.0497
-52.0117
-54.293
-55.1831
-55.9349
-53.8026
-42.3453
-15.9666
5.89877
-4.60378
-28.7731
-57.235
-80.5
-93.9501
-95.4291
-86.2884
-70.6615
-53.3717
-37.5658
-24.6963
-15.9511
-12.491
-15.8623
-23.5701
-32.9837
-41.839
-47.8386
-50.074
-50.7001
-51.2344
-49.2687
-40.6175
-16.8064
-2.96414
-2.46613
-9.55607
-20.6767
-32.7258
-45.7651
-59.4675
-71.6045
-77.0074
-73.122
-65.5312
-60.3917
-58.0633
-57.6103
-56.123
-51.1815
-41.5071
-31.6003
-23.9982
-16.6691
-10.6329
-7.66657
-8.39006
-12.825
-6.07639
-3.1363
-3.27357
-11.6494
-23.4285
-35.6065
-48.571
-62.0671
-73.8312
-79.4073
-76.813
-70.2175
-63.6356
-60.2495
-60.4483
-59.4939
-54.706
-45.3088
-34.7684
-26.7765
-19.6291
-13.2966
-10.1978
-12.4605
-15.7543
-7.29828
-2.72674
-4.5639
-14.855
-26.9391
-38.2928
-50.6298
-63.5976
-73.8479
-78.5166
-77.5997
-72.8365
-67.1679
-64.4157
-65.2863
-63.7038
-58.4673
-49.8298
-39.4921
-30.2846
-21.604
-14.0088
-10.4156
-13.5467
-16.6723
-10.0159
-2.27618
-6.71038
-19.2111
-31.364
-41.8132
-53.7199
-66.3701
-76.0127
-80.0481
-79.9751
-76.7615
-72.7722
-71.084
-71.7349
-69.4795
-63.588
-54.0883
-43.2445
-33.7562
-24.3429
-16.0785
-12.1405
-14.6009
-16.1773
-9.21177
-3.59452
-11.1184
-25.194
-36.6982
-46.1428
-57.2886
-68.9771
-78.6433
-83.2484
-83.5822
-81.2204
-78.8535
-78.5592
-78.2481
-75.0576
-69.1853
-59.2
-47.0831
-37.0642
-28.0011
-19.6123
-14.8285
-15.4322
-15.768
-7.81423
-7.57688
-18.1187
-32.2149
-42.3995
-51.1739
-61.9237
-72.4707
-81.6231
-87.2964
-88.6066
-87.1852
-86.1684
-86.9317
-85.2536
-80.7822
-75.2674
-65.3286
-52.5991
-42.004
-32.9065
-23.9912
-17.6469
-16.8231
-16.2825
-10.6806
-13.5362
-26.2511
-38.8096
-47.7655
-56.2118
-67.1274
-77.5134
-86.2172
-92.8265
-95.4822
-95.213
-95.3073
-96.615
-93.3679
-87.4431
-81.6547
-72.2289
-59.6699
-48.8505
-38.8511
-28.6491
-20.5246
-18.5288
-17.8137
-16.3929
-20.2603
-33.0531
-43.7066
-52.0671
-60.2684
-71.8704
-82.6517
-91.5042
-99.162
-103.525
-104.861
-105.985
-107.286
-102.502
-94.9901
-89.2216
-80.0274
-68.1636
-57.1166
-46.4025
-34.6448
-24.1626
-19.3118
-17.5244
-14.7973
-26.1722
-36.8083
-46.3443
-54.9732
-63.2181
-75.3768
-86.7153
-95.5664
-104.254
-110.946
-114.077
-116.02
-117.609
-112.645
-102.721
-97.8437
-89.8929
-77.8351
-66.5608
-55.6591
-41.945
-28.567
-19.3863
-14.1689
-8.34202
-29.7718
-37.5376
-47.4383
-57.0431
-65.7031
-77.7945
-89.8384
-99.0282
-108.298
-117.198
-122.107
-124.214
-125.681
-123.317
-112.966
-106.77
-100.457
-88.6608
-76.6736
-64.2159
-48.216
-32.158
-19.4964
-9.92211
-1.09371
-30.3865
-35.9631
-47.0555
-58.1193
-67.9205
-79.3509
-91.421
-101.799
-111.779
-122.004
-128.524
-130.919
-131.469
-132.112
-123.899
-115.498
-109.61
-98.5489
-84.9834
-69.6942
-51.606
-33.8644
-20.2795
-7.75457
3.7164
-28.2471
-32.9021
-45.5973
-58.1993
-68.9008
-80.3814
-92.3644
-103.395
-113.991
-124.701
-132.489
-135.186
-135.312
-135.527
-129.342
-121.076
-114.32
-103.439
-89.4954
-74.1816
-56.2648
-38.0889
-23.3043
-8.8019
4.22841
-23.7626
-28.8947
-43.4586
-57.7553
-69.3356
-80.8191
-92.3941
-103.651
-114.724
-125.46
-133.578
-136.379
-136.041
-135.508
-130.875
-122.976
-115.306
-104.687
-91.1913
-77.7364
-62.0884
-44.5796
-27.4312
-11.0979
2.32685
-17.4764
-24.2925
-41.0803
-56.9833
-69.51
-81.1513
-92.2993
-103.052
-113.896
-124.189
-131.609
-134.065
-133.094
-132.278
-128.481
-119.98
-111.237
-102.039
-89.024
-77.4736
-65.1637
-49.4173
-31.2601
-13.2224
-0.111416
-10.2649
-19.7158
-38.8418
-56.2663
-69.8741
-81.8244
-92.5192
-102.212
-111.711
-120.461
-126.403
-127.929
-126.081
-123.853
-121.153
-113.021
-102.808
-96.6817
-85.6317
-74.257
-64.8082
-51.4115
-33.6414
-15.0726
-1.31484
-3.07428
-15.7667
-37.155
-55.9908
-70.7499
-83.2094
-93.5173
-101.805
-108.998
-114.783
-117.621
-116.962
-114.159
-110.232
-108.32
-102.728
-92.3932
-89.0611
-80.9138
-69.7017
-61.5194
-50.8923
-35.3059
-19.1543
-3.85678
3.18609
-12.8006
-36.2944
-56.4886
-72.4173
-85.4941
-95.4985
-102.139
-106.447
-108.409
-106.665
-101.879
-97.314
-92.8208
-91.3324
-90.6118
-84.0145
-77.5527
-72.6301
-64.1503
-56.7982
-47.7971
-36.9328
-24.7282
-6.96749
7.90489
-11.0208
-36.3572
-58.0057
-75.3142
-89.0482
-98.5801
-103.272
-104.528
-103.05
-97.3501
-88.3127
-81.1761
-76.9791
-75.2433
-78.3131
-75.7903
-69.0599
-63.6806
-57.9281
-51.8338
-43.9557
-38.2353
-29.9267
-9.21271
10.7205
-10.6171
-37.4646
-60.6847
-79.5755
-93.999
-102.714
-104.845
-102.68
-98.35
-90.5101
-78.9541
-69.3724
-65.5332
-64.1562
-65.2344
-66.7929
-63.5538
-58.2819
-53.2499
-47.6973
-41.7416
-39.2746
-33.6282
-10.8719
11.6721
-11.3617
-39.4604
-64.3833
-84.8913
-99.8225
-107.23
-106.151
-99.8962
-92.4458
-83.127
-70.6283
-59.5266
-55.3136
-55.0546
-56.1004
-58.397
-58.0651
-54.6526
-49.7129
-44.7383
-41.021
-40.2744
-36.2411
-12.5615
11.5776
-12.5675
-41.5403
-67.8515
-89.7926
-104.888
-110.537
-105.853
-95.1233
-84.2562
-73.6317
-61.1463
-49.925
-45.4929
-46.2794
-49.0427
-52.1458
-52.9554
-50.6606
-46.6817
-43.0831
-41.2341
-41.3282
-38.239
-13.933
11.5154
-12.8911
-42.6433
-69.7865
-92.4743
-107.665
-111.86
-104.136
-89.1829
-74.6556
-62.8336
-50.9608
-40.3147
-35.9318
-37.4795
-41.9797
-46.7713
-48.6051
-47.2283
-44.4983
-42.4951
-41.991
-42.5762
-39.2312
-14.9679
11.7944
-11.12
-41.7992
-69.8227
-92.849
-108.272
-111.538
-101.912
-84.3382
-66.4275
-52.5047
-41.1444
-31.6709
-27.5529
-29.5123
-35.0856
-41.5267
-45.1132
-45.1246
-43.4303
-42.5241
-43.1773
-44.3682
-39.9933
-16.1062
12.265
-7.04188
-38.1804
-68.1581
-92.2592
-107.833
-110.372
-99.7237
-81.3504
-62.1924
-46.389
-33.6884
-24.466
-21.2538
-23.4872
-29.0486
-36.2746
-42.0706
-44.4845
-44.0488
-43.614
-44.8176
-45.756
-40.3838
-15.9106
12.4204
-2.70096
-32.1636
-63.4644
-88.1907
-102.805
-104.475
-94.3826
-77.7467
-60.0411
-44.269
-30.5786
-20.4472
-16.7877
-19.3571
-24.4463
-30.9415
-37.2871
-41.0875
-41.7356
-41.7989
-43.2102
-43.2916
-37.9519
-14.5715
-4.97451
-4.08218
-12.1007
-23.6005
-35.0112
-47.9182
-63.2217
-75.8239
-76.118
-67.6199
-60.5984
-56.7498
-55.3589
-55.7473
-54.3301
-51.7892
-41.5603
-33.4106
-25.2301
-17.5182
-12.8282
-8.48062
-7.02795
-11.309
-1.95867
-5.25363
-5.54891
-14.5388
-26.1193
-37.5653
-50.7792
-66.417
-78.4401
-79.8805
-74.2072
-66.9666
-60.9898
-58.558
-58.2433
-55.9739
-53.8514
-46.9719
-40.1754
-34.1307
-27.43
-19.8142
-11.7379
-10.6949
-19.885
-9.23403
-5.22177
-8.11024
-18.3332
-29.5701
-40.0347
-52.401
-67.4341
-78.7451
-80.8024
-77.3261
-71.9042
-67.2993
-65.2975
-64.3453
-59.6929
-55.8906
-49.7321
-42.7305
-36.3571
-29.4361
-20.1566
-11.0731
-11.9513
-24.5691
-13.414
-6.38643
-12.2559
-23.8541
-34.5449
-43.8038
-55.0079
-68.6405
-79.9596
-83.5205
-82.026
-78.0164
-74.5577
-72.7324
-70.5615
-64.4169
-59.7079
-52.0273
-44.618
-38.2482
-30.4761
-20.5559
-11.9094
-13.0493
-25.5346
-18.2976
-10.6347
-19.286
-31.5479
-41.1492
-49.188
-59.4399
-71.0898
-81.6457
-86.9211
-86.7429
-83.4522
-81.2055
-79.8725
-76.3791
-69.196
-64.6862
-56.2162
-48.3131
-41.9296
-33.3894
-22.4283
-13.6524
-12.7944
-24.5516
-20.1622
-18.0122
-28.8276
-40.2383
-47.997
-54.5879
-64.3089
-74.9683
-84.6777
-91.1257
-92.4167
-90.0238
-88.4296
-86.7455
-81.9161
-74.5053
-70.4705
-61.8877
-53.5299
-47.1352
-37.8652
-25.4528
-15.4231
-12.9624
-23.7186
-19.334
-27.222
-38.34
-47.3175
-53.01
-58.3913
-68.1081
-79.1758
-89.0905
-96.5656
-99.6052
-98.3854
-96.9976
-94.7129
-87.3284
-79.453
-75.736
-67.6548
-59.8671
-53.7514
-43.3676
-29.2123
-17.8535
-15.6648
-23.2347
-17.3162
-36.3496
-44.8993
-51.2026
-56.6187
-61.8641
-71.6093
-83.2502
-93.8077