/*--------------------------------*- C++ -*----------------------------------*\
  =========                 |
  \\      /  F ield         | OpenFOAM: The Open Source CFD Toolbox
   \\    /   O peration     | Website:  https://openfoam.org
    \\  /    A nd           | Version:  11
     \\/     M anipulation  |
\*---------------------------------------------------------------------------*/
FoamFile
{
    format      ascii;
    class       surfaceScalarField;
    location    "5";
    object      phi;
}
// * * * * * * * * * * * * * * * * * * * * * * * * * * * * * * * * * * * * * //

dimensions      [0 3 -1 0 0 0 0];

internalField   nonuniform List<scalar> 
49858
(
-5665.72
6950.29
3174.3
6165.71
211.859
-5976.27
2805.42
6451.63
-987.359
8109.42
-6654.4
2726.91
14963.8
-10706.5
5049.14
19814.1
-10331.9
6628.29
21994.9
-8675.63
7566.06
22139.4
-7084.34
7910.89
20942.7
-5749.02
7812.66
18854.2
-4604.74
7480.73
15904.6
-3508.39
7152.02
11844.6
-2295.91
6969.78
6181.66
-757.198
6925.35
-1281.08
1083.17
6850.99
-10030.5
2809.3
6424.32
-14767.5
444.168
4696.7
-13749.7
-7174.39
6004.48
-13605.2
-5007.76
4771.5
-7894.61
-5012.12
-739.403
-4039.09
-2365.34
-1644.3
-454.224
-4906.22
1273.26
-1443.22
-4059.93
5276.52
-2196.13
3273.42
-2260.52
3600
4287.17
-10087.4
1178.91
-12592.3
-1099.6
9030.52
3416.64
1676.93
7301.52
-4581.5
8673.57
233.857
72.8544
17438.1
-14825.7
95.028
24551.1
-18185.6
1082.37
29166.6
-16724.8
2555.76
31533.9
-14074.7
3784.79
32140.1
-11536.2
4547.73
31502.6
-9369.82
4893.47
30004.1
-7529.04
4987.53
27783.4
-5825.25
5035.12
24845.7
-4092.37
5144.84
21225.3
-2115.31
5307.67
17063.5
123.026
5421.27
12492.4
2312.2
5392.24
7009.38
1444.41
4855.01
-3004.96
-2430.39
5504.46
-14047.7
-53.5294
6029.94
-10187.8
-8811.01
-147.807
-3492.76
-7903.63
-1032.22
-5057.52
-1956.79
-942.188
-3169.67
-4196.12
-1017.17
528.159
2008.71
-1772.73
6966.81
6328.41
-8246.25
3993.11
-11876.2
1052.69
9427.05
2427.71
3428.73
9568.85
-3110.13
13409.6
-7734.78
-1596.1
22139.9
-20617.4
-2486.55
28798.4
-22513.8
-1755.75
33120.1
-20259.6
-119.361
35308.2
-17024.2
1449.04
35775.1
-13945.4
2586.29
34998.3
-11335.1
3306.97
33356.8
-9146.75
3747.85
31015.4
-7181.4
4076.14
28069
-5232.15
4392.77
24652.9
-3159.08
4683.57
21078
-1017.52
4881.09
17581.8
966.663
4952.89
12738.4
1442.61
4832.85
3544.22
888.302
5576.13
-6500.86
1817.34
7515.6
-10708.1
-6914.9
1843.37
-6152.04
-10375.8
-2523.49
-1410.83
-4287.13
-2356.74
-781.615
-4412.47
-8.02187
-517.069
-169.583
2137.33
3637.08
5688.65
-3598.25
6004.73
-8473.22
1335.13
10261.4
1416.23
6987.14
5934.15
-1588.01
16978.6
-14662.5
-2872.51
24996.5
-24759.5
-3627.87
30996.1
-25270.8
-2833.89
34968.7
-22536
-1185.05
36863.8
-18984.1
624.919
37031.8
-15626.8
2034.71
35990.3
-12809.5
2986.05
34109.7
-10476.4
3605.77
31523.1
-8391.54
4073.61
28355.8
-6361
4487.69
24810.4
-4313.85
4815.65
21162.5
-2304.2
4999.58
17556.8
-411.858
5037.41
13000.4
1014.56
4962.21
5893.35
2371.59
5321.6
-3332.76
2661.83
7454.88
-11931
-2129.2
2976.1
-9344.64
-11080.7
-2036.43
-1633.36
-7477.18
-4200.67
436.003
-4345.7
-1528.34
-991.273
-1360.95
3243.86
347.784
4881.6
-355.894
6363.49
-4809.21
2114.73
11176.4
358.958
9803.92
686.99
-2426.68
19591.5
-20050.7
-4340
27023.8
-27548.4
-4427
32390.5
-26989.9
-3271.61
35924.5
-24019.7
-1526.24
37457.4
-20413.8
466.023
37289.3
-16980
2072.79
35981.4
-14139.9
3136.4
33876.9
-11818.9
3836.91
31095.4
-9739.7
4391.41
27802.8
-7781.61
4868.68
24210.5
-5863.04
5209.31
20487.9
-3969.93
5368.58
16683.9
-2067.18
5344.95
12300.8
-71.4487
5193.14
6890.82
1906.89
5130.32
-663.099
2707.25
6129.76
-8851.86
956.253
3797.86
-12364.5
-8211.05
108.243
-10225.1
-6860.16
-2899.36
-6973.15
-3927.03
-3748.04
-7191.36
-1298.05
37.3178
-6229.04
3402.48
237.15
-3947.91
3155.5
2994.62
11343.2
-153.213
12017.9
-5025.53
-3623.93
21601.3
-24133.5
-5666
28564.4
-29484.2
-4986.29
33471.4
-28233.4
-3451.5
36586.6
-25229.7
-1520.32
37693
-21722.3
649.352
37193.1
-18386
2370.97
35694.3
-15675.3
3465.61
33513.1
-13487.1
4199.94
30744.9
-11612.9
4820.09
27592.4
-9927.71
5369.13
24234.6
-8286.75
5751.43
20765
-6543.34
5930.28
17106.1
-4539.22
5927.22
12949.1
-2101.81
5783.21
7698.86
810.162
5590.23
-157.38
3724.24
5596.47
-7996.18
3341.25
4284.29
-14378.2
-3742.09
1375.44
-15020.6
-5894.37
-437.621
-13181.3
-3623.98
-2178.11
-12482.3
-476.137
-1536.33
-10603.2
1950.81
-368.111
32.1227
-3256.33
3905.51
11137.5
-648.244
13842.6
-9850.23
-5420.44
23204.9
-26798.7
-6818.23
29745.3
-30580.8
-5389.06
34274.3
-28965
-3528.28
36977.2
-26111.8
-1398.69
37704.5
-22848.3
910.431
37000.5
-19819
2659.09
35505.5
-17421.4
3739.97
33475.8
-15568.8
4504.5
30967.2
-14117.1
5212.12
28164.1
-12912.2
5864.35
25194
-11690.1
6350.7
22091.7
-10214.9
6655.36
18771
-8289.13
6840.02
14998.4
-5700.98
6953.64
10433.9
-2306.22
6950.9
4604.96
1741.32
6754.9
-3349.44
4501.59
5811.72
-11787.5
1446.34
2665.99
-14095.2
-5422.55
1334.97
-13533.1
-4690.85
38.2803
-11855.6
-1718.37
-885.107
-9988.12
1342.53
-1662.45
680.325
-3154.7
4978.22
9356.56
-652.297
15438.8
-13881.4
-7126.13
24493.7
-28444.9
-7757.46
30611.6
-31129.3
-5709.55
34774.8
-29426
-3594.29
37117.3
-26849.1
-1324.84
37611.4
-23967.6
1032.75
36904.2
-21409.7
2754.81
35605.1
-19489
3843.15
33866.2
-18163.3
4702.2
31672.5
-17316
5560.19
29178.6
-16744.3
6372.65
26490.3
-16101.6
7052.16
23664.2
-15137.8
7607.63
20688.3
-13664
8120.1
17398.3
-11431.8
8648.41
13523.7
-8144.93
9096.67
8859.44
-3540.9
9198.2
2898.3
1305.02
8435.22
-3596.45
1930.64
5464.67
-9020.75
-3355.54
2636.86
-9866.95
-6639.04
2074.09
-8361.57
-4491.26
786.362
-5464.03
-861.881
-882.931
251.589
-2008.47
6281.01
6482.58
-582.983
16807.9
-16120.9
-8651.74
25462.4
-28818
-8520.76
31168.5
-30834.9
-6014.36
34958.7
-29302.9
-3731.12
37039.9
-27142.1
-1410.41
37494
-24871
922.732
36960.7
-22968.2
2627.71
35930.8
-21711.1
3789.05
34447.8
-21082.3
4816.85
32462.9
-20995.7
5864.22
30179
-21242.3
6857.53
27768.3
-21468.8
7764.31
25381.8
-21436
8603.76
23085.8
-20965
9454.33
20701.8
-19701.2
10416.9
17889.6
-17085.3
11392.9
14578.6
-12659.8
12012.2
10202
-6523.85
11855
3664.42
-1731.1
9838.84
-3125.9
-3275.97
6073.03
-5468.5
-8263.49
2983.01
-5116.06
-7744.24
2027.57
-2256.7
-5080.74
692.615
-1007.68
76.7481
7254.15
2884.05
-1205.74
17790.6
-17407.1
-9991.99
26069.1
-28369.1
-9187.06
31414.5
-30001
-6368.85
34896
-28781
-3962.71
36858.4
-27155.1
-1688.55
37438.6
-25642.6
585.55
37127.1
-24482.3
2319.52
36289.1
-23949.2
3602.7
34932.3
-24114.3
4803.5
33082.3
-24950.1
6003.34
31066.7
-26260.4
7124.84
29138.8
-27722.5
8201.2
27494.5
-29071.3
9256.35
26200.5
-30048.7
10327.6
24989.1
-30144.3
11555.3
23402.9
-28522.4
12892
21203.9
-24513.8
13927.6
18623.8
-18249.2
14251
14713.6
-11507
13561.5
6857.53
-7031.58
11307.8
-3071.81
-6978.02
7962.64
-5789.09
-9831.2
3902.12
-2983.02
-10416.8
1954.82
-1867.72
2165.34
7663.8
215.726
-2007.24
18363.3
-17259.3
-11183.7
26355.5
-26793.8
-9785.52
31421.4
-28405.5
-6712.56
34698.9
-27681.4
-4195.82
36642.6
-26747.6
-2006.72
37378.7
-26039.6
137.404
37189.7
-25663.3
1913.47
36405.3
-25893.3
3298.49
35103
-26958.2
4585.74
33448.7
-28901.3
5826.75
31871.6
-31540.6
6967.95
30623.8
-34516.9
8096.9
29836.3
-37492
9233.11
29513.6
-40030.5
10322
29344.5
-41479.6
11516.2
28821.8
-40863.4
12863.2
27652
-37346.7
14033.5
25801.7
-31068.1
14712.2
23062.4
-23545.2
14787.1
18604.6
-16732
14013.7
10400.7
-11500.2
12370.6
-1047.6
-8567.68
9654.93
-8604.04
-8978.91
5604.85
-3408.03
3461.44
7849.99
-2260.67
-2683.87
18593.4
-16568.6
-12167.2
26378.7
-24669.6
-10329.5
31268.9
-26476.6
-7014.94
34409.7
-26348.8
-4411.95
36325.6
-26095.4
-2313.79
37103.2
-26043.1
-367.095
36914.9
-26385.6
1418.12
36126.2
-27400.4
2849.26
34930.5
-29445
4114.07
33588.2
-32613.3
5267.78
32555.7
-36670.6
6291.51
31995.8
-41171.3
7305.45
31915.5
-45650.3
8320.83
32253.5
-49480
9201.09
32758.4
-51940.3
10068.6
32994.2
-52072.5
11107.4
32651
-48999.6
12192.3
31553.6
-42855
13099
29394.2
-34973.2
13775.3
25619.9
-26896.7
13999.6
19775.8
-19331.6
13595
11299.5
-12722.8
12417.3
758.076
-8648.45
10064.5
-3043.18
5859.33
7853.29
-3683.43
-3350.3
18620.2
-14580.1
-12935.6
26253.7
-21759.3
-10740
31042.5
-24031.5
-7235.9
34039.2
-24612.2
-4563.66
35795.4
-24967.3
-2533.75
36474.2
-25506.6
-762.888
36274.9
-26559.2
921.406
35546.8
-28419.5
2311.89
34561.8
-31472.3
3437.38
33589.5
-35793.2
4358.34
33038.8
-41106.1
5103.99
32961
-46851.1
5839.58
33252.8
-52413.8
6541.76
33833.5
-57022
7034.19
34590.8
-59993.6
7382.17
35254.6
-60506.2
7897.52
35531.5
-57888.2
8758.42
35139.1
-52229.3
9946.49
33701.8
-44611.9
11218.6
30857.5
-36060
12080.3
26162.5
-27337.4
12644.3
19894.3
-19105
12520.3
12154.3
-12429.9
11426.1
-6776.72
7972.69
7888.19
-4477.55
-4171.83
18567.3
-12281.5
-13553.8
26087.8
-18650.3
-11007.5
30814.8
-21509
-7391.06
33690.8
-22761.4
-4660.25
35266
-23637.4
-2649.15
35830.4
-24701.7
-981.034
35611.2
-26404
558.727
34953.9
-29038.8
1807.09
34164.9
-32937.7
2647.58
33458.4
-38092.9
3178.71
33156.5
-44188.3
3491.81
33220.1
-50645.5
3813.19
33491.7
-56731.5
4115.76
33918.1
-61564.9
4189.99
34568.2
-64540.8
3994.58
35364.2
-65119.7
3949.66
36112.5
-62988.2
4522.76
36440.2
-58274.4
5925.55
35934.4
-51555.9
7636.2
34245.7
-43262.7
9033.59
30848.5
-34112.2
10215.8
25797.4
-25035.9
10972.4
20009.3
-17352.2
10728.2
-11926.7
7892.39
7905.06
-4035.06
-5055.32
18575.8
-8979.16
-14071.8
26020.8
-15046.4
-11153.5
30704
-18717.9
-7470.4
33506
-20672.8
-4689.65
34937.6
-22114.8
-2632.01
35376.8
-23693.3
-1002.9
35113.6
-26001.6
369.685
34479.8
-29250.4
1370.57
33754.5
-33682.6
1833.22
33088.6
-39168.1
1881.7
32712
-45415.3
1670.04
32549.1
-51931.6
1484.87
32465.6
-58015.5
1375.3
32456.4
-62694.6
1136.56
32753
-65359.9
535.062
33487.7
-65825
-0.781808
34671.6
-64244.7
156.799
35880.3
-60823.2
1438.97
36559.5
-55440.3
3347.14
36157.2
-48095.3
5343.46
34017.7
-39022
7086.08
29990.8
-29620.5
8556.57
24851
-21405.4
9124.99
-15979.4
7010.12
7966.25
-3069.39
-5800.6
18586
-5610.59
-14492.3
25996.6
-11492
-11274.7
30690.3
-16012.9
-7508.52
33464
-18724.2
-4663.24
34820.1
-20698.2
-2522.75
35123.9
-22764
-897.938
34774.4
-25487.4
304.107
34079.7
-29082
992.043
33275.3
-33609
1057.68
32426.4
-38867
642.749
31710.5
-44594.4
-63.7544
31063.3
-50518.6
-762.298
30446.9
-56121.3
-1298.98
29888.5
-60402.9
-1778.84
29711.1
-62644.8
-2568.12
30265.2
-62964.4
-3419.39
31830.7
-62024
-3768.29
34104.9
-59945.2
-3106.24
36204.4
-55967.4
-1501.29
37224.3
-50085.3
999.241
36182.8
-41678
3687.81
32916.4
-32477
6068.05
28207.3
-24137.6
7510.33
-18820.9
6155.51
7866.28
-1422.3
-6226.32
18567.3
-1505.93
-14708
25939.8
-7596.28
-11345.4
30659.4
-13162.1
-7507.3
33432.6
-16731.4
-4592.69
34749.3
-19291.4
-2389.5
34948.5
-21797.7
-777.062
34480.7
-24795.6
262.931
33653.7
-28461.3
655.214
32702.4
-32734.6
370.7
31667.7
-37380.5
-399.302
30690.3
-42189.3
-1426.41
29723.1
-47122.2
-2478.8
28829.9
-51926.3
-3384.83
28107.4
-55725.4
-4072.67
27869.4
-57732.4
-4787.56
28405
-58022
-5574.76
29827.9
-57355.2
-6183.43
32195.9
-56087
-6264.91
35307.6
-53629.4
-5488.84
37869.4
-49240.7
-3388.88
37769.8
-42137.7
499.255
35058.1
-33851.4
4021.12
30720.9
-26050.2
6173.53
-20844.5
5440.52
7609.42
553.001
-6298.57
18524.7
1974.08
-14710.3
25803.1
-3719.57
-11395
30561.3
-10436.3
-7559.24
33361.9
-14847.2
-4604.57
34668
-18004.8
-2379.1
34798.4
-20826.7
-790.216
34212.4
-23910.3
123.915
33248.3
-27365
281.84
32194.8
-31113.3
-294.537
31102.7
-34945.1
-1314.05
30069.4
-38760.1
-2439.08
29038.6
-42666.7
-3523.54
28105.2
-46622.3
-4505.03
27406.5
-49901.4
-5295.36
27220.4
-51722.6
-5973.16
27835.1
-52018.1
-6770.13
29360
-51456.9
-7558.31
31687.9
-50537.4
-7995.34
34830.2
-49042.2
-7834.48
38102.6
-46169.8
-6447.77
38821.9
-41129.6
-1877.38
36584.5
-34246.6
2541.48
32710.5
-27244
5129.34
-22101
4808.85
7465.5
2605.38
-6044.22
18498.7
5409.88
-14305.3
25699.5
554.822
-11406.8
30475.1
-7399.2
-7713.98
33302.6
-12682.3
-4800.02
34600.1
-16399.4
-2586.14
34658.4
-19501.3
-1035.12
33965.6
-22560.9
-210.442
32895
-25700.5
-221.577
31822.9
-28793.5
-1030.35
30816.4
-31702.7
-2264.25
29936.6
-34551.3
-3412.12
29058.8
-37613.3
-4317.21
28241
-40901.5
-5075.57
27619.3
-43735.4
-5757.95
27460.3
-45316.2
-6443.78
28047.6
-45601.8
-7211.01
29573.7
-45177.9
-7994.53
31826
-44488
-8485.09
34706.6
-43553.8
-8495.07
37999.8
-41944.4
-7642.73
39053.6
-38893.7
-3408
37219.5
-33800
1285.09
33719.6
-27909.2
4155.13
-22458.4
4123.78
7869.22
3714.61
-5495.86
18141.9
8487.65
-13245.9
25639.6
4479.74
-11394.4
30413.8
-4001.87
-8042.62
33274.4
-10030
-5296.7
34541.3
-14183.5
-3138.05
34505.4
-17492.8
-1596.01
33720.3
-20485.1
-800.898
32649.7
-23316.6
-890.42
31755.8
-25769.3
-1830.41
31030.7
-27757
-3252.01
30437.3
-29597.2
-4492.74
29757
-31891.3
-5302.03
28985.8
-34626.3
-5802.97
28245.9
-37094.3
-6241.06
27836.6
-38501.5
-6710.3
28067.6
-38904.7
-7224.86
29244.8
-38702.8
-7917.09
31169.7
-38126
-8484.4
33487.6
-37464.1
-8572.74
36163.3
-36891.9
-7828.55
37209.9
-35927.7
-4152.1
35843.8
-32750.5
305.306
32347.2
-27597.1
3353.72
-21333.4
3354.31
7355.23
4322.68
-4365.19
16978.5
11131
-11825.8
25175.9
7688.58
-11094.7
30245.6
-343.849
-8437.91
33203.7
-6726.9
-5935.24
34415.5
-11163.5
-3877.33
34281.8
-14618.7
-2350.99
33506.2
-17718.5
-1580.14
32715.2
-20515.5
-1651.13
32315.8
-22667.8
-2528.79
32014.3
-23610.2
-3958.42
31539
-24028.3
-5277.66
30698.9
-25161.4
-6152.23
29507
-27124.3
-6597.6
28086.8
-29136.7
-6855.24
26855
-30393.2
-7174.66
26309.4
-31023.4
-7629.16
26876.5
-31248
-8286.15
28355.4
-31080.5
-8744.16
30130
-31001.7
-8418.69
31987
-31772
-7110.95
32612.3
-33081.3
-3618.38
30947.3
-31258.9
141.382
25947
-25661.2
3044.55
-18072.6
2779.56
6602.54
4053.89
-2603.47
15678.4
12055.7
-9504.39
24283.2
9622.42
-10149.1
29816.2
3066.05
-8500.98
32863.2
-2885.43
-6390.27
34032.1
-7256.76
-4516.69
33927.3
-10876.8
-3092.78
33495.7
-14437.5
-2306.52
33375.6
-17814.6
-2186.14
33603.4
-20053.6
-2650.67
33216.3
-19502.1
-3726.27
31886
-17858
-5049.37
29874.9
-17370.3
-6254.17
27411.4
-18121.1
-7164.08
24698
-19262.8
-7827.48
22308.6
-20151.5
-8418.33
20995.9
-21214.2
-8976.62
21274.2
-22294.9
-9581.05
22696.8
-23215.1
-9513.8
24343.3
-24552.4
-8110.93
25604.8
-27330
-5571.43
24570.3
-30313.1
-1521.12
19824.8
-27807.3
1530.01
10065.8
-18879.8
3396.09
-10654.8
2256.12
5986.58
2817.32
-894.944
14471.9
10778.3
-6191.13
22944.2
9708.84
-7877.64
28748.3
5355.54
-7406.46
31773.3
807.606
-6101.01
33097.1
-3259
-4674.83
33399.3
-7332.45
-3396.02
33545.8
-11799.1
-2397.58
33743
-16210.9
-1653.72
33268.5
-18306.8
-1212.1
30506.5
-15300.5
-1699.16
26163.3
-10829.9
-2974.66
21768.3
-8771.67
-4842.06
17812.8
-8067.02
-6923.28
14348.2
-7753.04
-8964.82
11915.1
-7871.74
-10667.5
11325.6
-9675.88
-11650.2
12801.2
-12338.7
-11928.8
15359.7
-15137.4
-10845.9
17591.7
-18703.4
-8067.76
17896.9
-23119.7
-4216.74
11980.8
-25169.1
1019.37
869.71
-20059.8
3900.39
-10712.3
-10669.7
3479.8
-618.492
1941.81
5516.59
1357.04
66.045
13365.1
7139.72
-2623.87
21309.6
7055.59
-4291.03
26887.9
5195.04
-4628.77
29689.1
2617.47
-3873.07
30965.6
-1068.67
-2869.36
30971.6
-5309.91
-1632.4
29539.3
-9961.06
-230.503
26443.4
-14535.1
1365.97
19842
-14936.4
2796.11
9612.32
-8001.54
2143.71
478.684
-2527.18
64.6353
-5035.86
-1946.41
-2364.55
-7168.73
-1594.6
-5820.13
-6621.93
-743.515
-9514.08
-4215.66
220.396
-12927.1
154.056
-1249.75
-14655.8
5948.25
-4348.46
-14757.7
11528.9
-8165.31
-12994.8
15045.1
-12071.1
-10105.5
12647.1
-13464.6
-6910.2
715.744
-12582.7
3.0638
-8495.13
-12760.7
2496.81
-6998.85
-11171.8
-783.069
-1092.53
-149.635
5096.1
-147.241
12667
123.143
19585.7
465.661
24232.9
802.019
25597.6
1453.7
22710.6
1945.72
15135.2
2290.45
2485.83
2605.61
-15584.6
3256.5
-34179.4
3088.69
-39882.7
-3041.67
-33244.2
-9884.23
-24628.8
-11282.6
-17388.7
-9647.93
-10492.6
-8690.05
-2929.23
-8461.21
5399.62
-10317.7
12857.5
-12181.4
17138.6
-12610.7
17368.2
-12312.5
15352.9
-11363.7
11220.2
-8371.81
1085.85
-2632.86
-8919.37
-1299.35
1100.33
414.149
5276.13
1683.64
6926.13
2475.64
-11089.3
7305.5
2413.79
-2421.42
15418.4
-7006.92
2535.09
24097.7
-8915.47
6123.94
30695.3
-7854.84
8673.99
34942.6
-6267.34
10301.2
37397.9
-5088.76
11155.9
38678.6
-4427.17
11464.4
39149.4
-4058.48
11500.1
38839.4
-3658.14
11493.7
37560
-3024.62
11575.2
35015.7
-2063.99
11757.9
30889.6
-787.612
11952.8
24777.9
717.489
12002.4
17019.4
1290
11325.3
12196.1
595.594
10354.7
10949.5
-2323.37
8372.1
7889.66
-1714.63
3937.88
3855.7
709.271
1545.76
796.121
3576.97
688.997
2149.61
9170.59
-5181.95
5523.39
7386.59
-12975.5
9103.03
4111.94
-17816.1
-42.5509
-15091
2306.18
7518.04
2918.64
3440.96
3322.76
-3867.46
13016.9
-4270.75
-2115.94
22239.2
-13972.3
-1547.51
29688
-14518
-88.9465
35140.3
-11808.4
1754.72
38995.4
-9171.85
3488.52
41768.8
-7673.64
4911.83
43790.8
-7125.74
6009.86
45113.7
-6918.76
6904.57
45633.8
-6548.65
7701.42
45271.3
-5759.01
8475.01
43954.9
-4501.36
9231.45
41690.1
-2868.2
9914.57
38712.2
-1165.36
10413.4
34672.9
-109.382
10447.1
30249.8
238.121
10367.2
25903.9
-1544.11
9541.08
18565.3
-1448.66
6818.95
10634.9
3670.7
3872.01
5427.43
6550.23
1391.67
6301.51
7543.68
-47.512
10141.5
7485.44
-5528.31
12620.8
7651.24
-14221.1
3491.97
-15049.7
2395.3
8805.81
2529.63
5720.01
450.837
-2613.68
17081.1
-13898.8
-2960.43
24892.5
-20781.7
-3040.44
30117.2
-18663.8
-2242.89
34008.1
-14120.2
-1000.75
37284.2
-10852.1
513.55
40156.9
-9585.64
2170.97
42556.4
-9556.15
3762.42
44259.9
-9702.38
5151.46
45046.3
-9356.46
6359.91
44833.1
-8439.04
7481.75
43683.9
-7066.52
8539.77
41742
-5371.43
9435.6
39115.1
-3565.01
10077
35491.8
-1947
10362.1
31132.5
-373.801
10513.6
26785.4
22.2014
10131.8
19794.1
-421.806
7530.05
12945.9
3318.23
4486.55
7930.86
6741.03
2480.02
6720.58
6138.3
2693.68
9269.21
6559.37
590.151
12156.7
9704
-8561.96
6649.56
-11423.2
3170.03
9308.69
1285.71
10258.8
-4912.78
-2991.93
20383.3
-22420.8
-4306.12
26286.9
-26370.3
-3653.58
29661.2
-21981.8
-2427.88
32415.1
-16294.8
-1151.36
35536.3
-13169.9
414.761
38712.3
-12519.6
2276.26
41350.9
-12895.1
4051.02
43069
-13034.9
5494.92
43708.4
-12475.2
6742.37
43320.8
-11428.7
7988.22
42077.3
-10133.1
9195.66
40189.1
-8625.28
10186.6
37676.7
-6835.69
10857.7
34126.8
-4668.35
11229.6
29354.4
-1934.29
11521.5
24476.7
586.078
11460.1
17503.7
463.096
8676.28
10581.6
2567.79
5416.67
5227.41
4793.92
3141.16
3137.32
3477.62
3426.47
5556.6
4584.04
3045.27
9408.84
9170.81
-3555.13
8153.82
-6920.28
3806.91
9299.41
-13.3729
13518.3
-12106.2
-4932.88
21888.2
-29215.4
-5844.21
25834.4
-30403.8
-4120.56
28151.7
-24777.1
-2366.92
30734
-19024.8
-804.827
34106.5
-16485.5
974.074
37498.9
-16325.7
2949.11
40067.7
-16657.5
4677.82
41545.4
-16456.7
6043.42
41940.1
-15684.5
7375.25
41427.3
-14778.5
8843.99
40246.5
-13950.7
10259.4
38594.3
-12999.8
11397.1
36387.2
-11506.2
12182.2
33159.3
-9086.14
12718.9
28552.5
-5614.72
13156.8
23214.1
-1614.49
13260.8
16138.7
95.688
10786.4
9122.31
2207.54
7173.75
3071.57
3572.32
4202.49
-644.74
382.085
2994.37
601.177
-179.574
3528.24
3644.26
6145.21
135.001
12560.9
-2446.41
4935.25
8161.17
-830.532
15717.9
-19476
-7222.81
22068.1
-34260.5
-7049.53
24452.8
-33296.6
-4401.28
26221.9
-27365.2
-2339.29
28963.2
-22220
-608.976
32562.5
-20317.1
1359.57
35888.2
-20255.3
3377.97
38204.3
-20206.6
5022.62
39452.6
-19688.1
6418.11
39778
-19078.6
8024.65
39444.6
-18885.4
9868.9
38674.2
-19076.2
11639.2
37539.5
-19087
13094.1
35898.3
-18204.7
14167.6
33342.8
-15885.6
14960.1
29485.8
-12040.2
15554.4
24411.8
-7043.16
15651.4
17356.5
-2850.84
13831.9
10212.6
346.976
10036.6
3801.6
2657.25
6613.43
-2983.27
1341.64
3411.34
-4659.19
-2135.02
1944.87
-1959.82
2252.04
791.167
9505.37
-1747.09
7221.15
5486.29
-2080.81
17119
-25569.1
-9420.97
21378.7
-37494.1
-7957.19
22535.8
-35102.1
-4678.46
24007.1
-29500.4
-2592.82
26818
-25226.2
-762.332
30338.8
-23821.3
1360.62
33407.4
-23639
3396.51
35543.3
-23283.5
5033.69
36802
-22833.5
6648.17
37346.1
-22984
8721.39
37451.2
-24159.2
11103.9
37251.3
-25912.4
13388.5
36729.2
-27246.9
15278.8
35775.8
-27193
16669.3
34082.6
-25110.9
17679.7
31299.2
-20947.7
18337.1
27368.2
-15149.4
18402.6
21567.2
-8875.36
17268.5
14079.9
-3831.38
14020.8
7391.11
-35.2543
10410.7
-298.646
1774.92
6940.49
-7291.91
577.778
3040.08
-8648.26
1621.66
77.8098
7104.05
-1878.71
9953.3
341.367
-2689.22
17798.7
-29747.6
-11150.8
20064.6
-39106.2
-8653.13
20243.8
-36038.8
-5011.51
21502.1
-31091.5
-3101.72
24219.7
-27707.2
-1206.51
27424.4
-26591.7
1016.25
30187.2
-26248.1
3009.98
32289.6
-25920.8
4742.92
33764.2
-26133.1
6808.67
34691.5
-27733.6
9535.27
35313.9
-30881.8
12538.5
35677.1
-34568.2
15334.3
35745.8
-37338.8
17569.6
35457.1
-37976.7
19094.6
34543.5
-35845.1
20146.3
32723.2
-31068.1
20810.9
29960.3
-24356.2
20884.2
25780.5
-16774.7
20242.7
19274.1
-10074.4
17966.6
12057.3
-5064.1
14623.9
5725.08
-1298.23
11161.4
-1823.08
1026.9
7548.25
-7745.64
3025.95
3408.88
7320.84
-469.597
11263.5
-3975.52
-4511.96
17556.2
-32106.2
-12869.9
18303.8
-39263.2
-9319.96
17804.4
-36023.7
-5578.67
18852.2
-31731.2
-3954.91
21320.4
-29118.1
-2093.36
24058.1
-28190.2
247.774
26491.1
-27832.7
2256.51
28610.1
-28050.4
4239.79
30367.7
-29688.2
6942.3
31733
-33436.8
10379
32859.2
-38938.4
13871.1
33674.7
-44561.1
16958.7
34089
-48462.3
19293
34145.9
-49278.3
20665
33743.7
-46576.2
21489.2
32728.6
-40863.3
22089.4
31175.9
-33218
22292
28836.8
-24754.7
22036.6
24378.5
-16725.3
20802.7
17704.9
-10908.1
18387.7
11157.4
-7104.37
15083.5
5361.15
-3175.18
11758
-525.577
526.623
8871.96
5266.59
4673.72
11745.9
-7693.3
-6429.69
16715.7
-33068.1
-14406.4
16374.6
-38405.8
-10001.4
15470.3
-35212.1
-6401.81
16182.9
-31400.4
-4887.96
18185.3
-29066
-3409.88
20361.5
-28303
-1025.87
22480.2
-28350.4
1201.21
24659.3
-29821.5
3661.36
26727.2
-33642.8
7053.02
28476.5
-39982.9
11010.3
29881.9
-47757.7
14659.4
30719.1
-54810.7
17671.6
30894.8
-59085
19730.6
30711.8
-59360.4
20617.3
30428.6
-55618.5
20905.3
30080.8
-48868.5
21264
29786.3
-40662.7
21675.1
29518.3
-31993.5
21749.5
28189.6
-23398.3
21527.3
24314.4
-16341.8
20515.9
18162.5
-11563.4
18413
12174.4
-8779.29
15316.8
7161.63
-5326.61
12685.6
-153.868
9722.54
11766.1
-10196.6
-8205.8
15640.1
-32562.4
-15834.8
14582.8
-36565.4
-10811.5
13419.9
-33600.8
-7228.7
13615.5
-30232.9
-5396.7
14866.8
-28083
-3855.06
16466
-27506.8
-1732.03
18402.7
-28450.1
652.581
20782.2
-31798.8
3439.03
23149.6
-38067
7040.15
24970.2
-46681.7
10921.4
26046
-56052.3
14307.5
26145.7
-63749.7
17003.7
25375
-67585.7
18563.8
24391.3
-66674.9
18701.6
23777.3
-61630.8
18242.3
23721
-53971.9
18134.1
24456.9
-45651.3
18404.8
26015.3
-37462
18735
27197.3
-29244.1
19503.3
26826.7
-21789.6
19807.3
24138.6
-15835.9
19239.2
19232.2
-11891
17563.8
13665.8
-9417.96
15197.9
-5839.61
11831.8
11468.1
-11808
-9650.73
14482.1
-30871.9
-17228
13008.6
-33967.9
-11740.1
11633.6
-31418.1
-7927.79
11301
-28398.4
-5789.95
11815.4
-26515.7
-4043.04
12993.9
-26478.5
-2078.52
14923.5
-28770.8
356.905
17509.9
-34100.4
3083.72
19876.2
-42386.1
6452.47
21133.6
-52408.5
9964.89
21083.2
-62336.8
12783
19740.4
-69692.1
14706.4
17499.5
-72406.3
15485.4
15305.1
-69933.9
14770.2
13924.7
-63500
13467
13641.1
-55249.3
12871.7
14956.4
-47451.2
12915.1
18001
-40231.9
13036.7
21390.6
-32743.6
14051.2
23673.3
-26055
16070.6
24067.7
-19957.6
17322.3
22572.8
-15169.8
17153.5
19036
-11864.8
16028.2
-10181.8
12689.8
10986
-12110.2
-10869
13244.3
-27809.8
-18483.5
11534.3
-30566.8
-12642.5
10098.5
-28715.8
-8557.39
9528.19
-26175.1
-6044.39
9781.66
-24812.8
-4104.16
10793.2
-25587.9
-2127.19
12629.1
-29119.3
24.735
15075.3
-36058.9
2358.23
16892.9
-45632.1
5239.76
16993.2
-56200.6
8241.66
15304.4
-65843.4
10410.2
12149.5
-72190.5
11567.6
8220.82
-73386.3
11524.2
4683.14
-69185.4
9921.74
2320.34
-61487.8
7871.04
1411
-53007.2
6736.42
2832.15
-46081.5
6167.16
6864.98
-40027.1
5926.56
12065.3
-33929
7407.99
16756.9
-28740
10220.5
19838
-23753.9
13414.9
21493.4
-18945.1
14670.9
21503
-14991.3
14598
-13930.9
12037.4
10445.1
-11549.5
-12137.8
12037
-23822.2
-19426
10261.9
-26719.2
-13314.8
9010.33
-25883.9
-9053.05
8557.71
-24045.6
-6195.34
8844.23
-23326.4
-4067.58
9784.85
-24909.2
-2118.96
11443
-29376
-313.043
13398.3
-37157.9
1426.67
14260.5
-47134.9
3620.06
12909.5
-57476.1
5982.01
9472.38
-66230.8
7445.95
4610.36
-71309.2
7890.07
-721.944
-71134.1
7273.4
-5231.44
-65494.2
5085.3
-8272.32
-56810.6
2465.47
-9839.8
-48401.2
1084.48
-8892.16
-43112
852.907
-4775.42
-39450.4
1537.19
1238.46
-34811.6
2872.87
7372.1
-30412.6
4883.64
12703
-26186
7488.23
17096.1
-21786.8
9446.89
19971.4
-17876.1
10754.4
-16998.4
9912.7
9981.45
-9898.12
-13439.8
11204.1
-19191.1
-20098.1
9591.95
-22612.1
-13837.9
8666.11
-23007.9
-9467.18
8470.29
-22083.9
-6303.65
8849.39
-22064.3
-3935.1
9702.77
-24315.1
-1990.85
11070.4
-29379.2
-505.1
12390.1
-37235.6
568.445
12246.7
-46808
1940.84
9510.98
-56263.5
3527.7
4573.09
-63739.3
4161.37
-1428.03
-67597.9
3776.6
-7322.34
-66631.8
2743.19
-11931
-60197.5
427.089
-14924.4
-50720.9
-2550.41
-17030
-42199.3
-4033.52
-17505.2
-38240.9
-4131.84
-15014.9
-37084.8
-3248.09
-9580.13
-35168.3
-1529.88
-2660.84
-32268
402.516
4348.73
-28093.8
2008.73
10862.8
-23156.8
3417.87
16050.1
-19549.1
5728.6
-19393.2
7713.09
9665.56
-7705.48
-14565.8
10939.4
-14513.4
-20687.3
9692.42
-18548.9
-14317.8
9095.31
-20190.7
-9802.74
9127.29
-20357.3
-6316.21
9631.73
-21127.3
-3651.67
10428.7
-23966.8
-1646.53
11464
-29232
-418.539
12156.6
-36564.1
30.8728
11183.6
-45055.2
555.668
7409.86
-53015.4
1267.96
1467.5
-58752.5
949.089
-4985.2
-61382.2
-529.098
-10545.6
-60137.3
-2275.05
-14532.8
-53624.1
-4437.08
-17056.4
-44042.1
-6772.56
-19367.1
-35612.6
-7724.16
-21498.9
-32051.4
-7819.64
-21847
-32171.7
-7599.88
-18489.8
-33229.8
-6706.87
-11538.4
-33225.1
-4817.74
-3132.01
-30220.9
-2523.46
4842.81
-24595.6
-411.083
11389.8
-21375.1
2734.24
-21455.9
6380.06
9549.39
-4876.28
-15322.6
11205.3
-9794.74
-21224.6
10487.8
-14531.5
-14837.1
10228.6
-17420.2
-10082.4
10499.7
-18838.6
-6295
11184.1
-20556.5
-3377
11997.6
-23903.3
-1312.52
12765.8
-29086.4
-238.004
12982.1
-35561
-213.568
11443.5
-42555.4
-350.357
6976.65
-48691.1
-194.246
259.161
-52481.6
-984.512
-6805.76
-53570.9
-3314.85
-12640.9
-51882.1
-5945.82
-16684.2
-45832.9
-7995.31
-19118
-37190.8
-9353.86
-20983.9
-29688.2
-9764.46
-22689.7
-26725.6
-9928.64
-23516
-27230.9
-10496.4
-22549.3
-29259.9
-10526.4
-17169.3
-32113.5
-10008.2
-8306.55
-31825.4
-6909.11
107.902
-26584.2
-2540.32
6713.41
-23211.8
1417.56
-22174.1
5000.47
9620.51
-1980.97
-15653.2
11855.2
-5264.79
-21717.9
11834.9
-10752.1
-15363.1
12050.6
-14898.7
-10382.8
12624.3
-17568.5
-6385.14
13539
-20239.4
-3362.35
14414.2
-23962
-1295.39
14991.2
-28850
-280.02
14841.8
-34283
-485.437
12949.9
-39683.9
-1012.81
8119.77
-44222.5
-902.095
731.125
-46678
-880.421
-7483.82
-46535.5
-2480.1
-14615.6
-44143
-5285.81
-19482
-38653.2
-7819.6
-22162.5
-31376.3
-9291.44
-23553.1
-25136.4
-10134.1
-24305.1
-22534
-11210.3
-24114.6
-22989.2
-12649.7
-22599.2
-25236.9
-13556.2
-18442.6
-29794.6
-13079.7
-11528
-32136.4
-8643.5
-4265.34
-28525.8
-2914.38
1165.38
-24305.5
679.174
-20771.5
3862.29
9870.84
828.904
-15414.5
13028.9
-686.954
-22107.9
13775.8
-7089.73
-15980
14573.1
-12554.3
-10926.4
15552.8
-16452.6
-6845.26
16716.7
-19969.2
-3797.03
17632.8
-23865.9
-1757.15
18036.9
-28277
-802.235
17609.3
-32641.2
-1131.48
15553.9
-36486.4
-1960.11
10636.2
-39690.6
-1868.81
2835.12
-41628.2
-713.11
-6617.63
-41624.9
72.4775
-15725.5
-39230.4
-1098.88
-22274.8
-34141.1
-4010.74
-25650
-27418.7
-7289.15
-26756.9
-21839.7
-9688.76
-26581.4
-19398.4
-11597
-25289.5
-19944.6
-13112.9
-22524.9
-22715.3
-14090.7
-18824
-28017.6
-13422
-14389.4
-31599.4
-8779.43
-9204.98
-29186.9
-3481.76
-5275.44
-23813.7
-395.368
-17542.7
3114.75
10402.2
2727.79
-14481.8
14810.5
3362.84
-21763.1
16536.7
-3275.09
-17007.3
18003
-9804.05
-12263.3
19510
-14729.6
-8416.14
20912.8
-18848.6
-5436.86
21768.4
-22864.6
-3168.75
21995.2
-26865.2
-2101.77
21458.2
-30287.4
-2396.44
19473.7
-32743.8
-3395.39
14677.6
-34494.8
-3648.76
6606.51
-35755.4
-2399.59
-3777.16
-36256.9
-503.758
-14599.5
-34874.5
395.811
-23043.1
-30657.9
-1582.68
-27593.7
-24485.5
-5382.73
-28873.3
-19518.2
-8584.13
-28192.7
-17491.9
-10862.5
-26120.8
-18229.6
-12667.6
-22696.1
-21194.9
-13898.8
-19230.3
-26537.2
-13189.6
-16416.4
-30340
-8654.99
-13346.1
-28209.3
-4124.5
-10471.1
-21769.5
-1822.75
-12393.4
2213.79
10353.9
3839.1
-12390.8
16427.6
6392.29
-20794.3
19886.9
-4.97569
-17794.4
22366.3
-7228.43
-13416.2
24315
-12817.8
-9645.87
25778.4
-17326.8
-6598.4
26534
-21270.9
-4425.07
26741.5
-24766.7
-3556.24
26424.2
-27470.4
-3920.28
24973.4
-28765.3
-4921.91
20678.2
-28690.1
-5564.49
12435.7
-28324.1
-4630.69
1138.2
-28617.3
-2737.21
-11097.8
-28508.6
-1014.09
-21465.3
-26059.3
-1463.77
-27509.4
-21380.8
-4638.61
-29292
-17577.3
-8219.5
-28547.4
-16166.9
-10772.8
-26263.4
-17114
-12550.6
-22823
-20249.9
-13183.4
-19202.7
-25681.4
-11974.2
-16437.2
-28885.8
-8284.08
-14273
-25460.7
-5096.43
-10841.4
-18868.8
-3513.77
-4737.26
855.571
9878.48
4016.89
-9077.11
17687.7
8001.65
-18620.3
23428.1
2298.52
-18015.1
27268.5
-4730.98
-14685.7
29728
-10340
-11189.3
31232.4
-14918.7
-8286.4
31986.1
-18883.9
-6150.39
32375
-22195.7
-5161.82
32503.9
-24414.2
-5311.55
31725.8
-24692.4
-5965.17
27924.6
-22242.8
-6538.12
19273.5
-18729.3
-6121.14
6549.2
-17275.7
-5001.64
-7501.53
-17982.8
-3726.23
-19659.5
-17839.9
-3971.43
-26987.4
-16072.4
-6493.82
-29184.6
-14834
-9756
-28250.4
-14786
-12196.4
-25904.8
-16264.5
-13119.5
-22961
-19885.3
-11912.8
-19605.4
-25939.4
-9324.04
-15665.3
-28518.1
-6689.33
-13106
-20952.8
-6340.52
-12455.7
-11622.1
-5373.42
-184.106
760.678
8999.93
3153.52
-5319.7
18222
7723.92
-14635.2
26011.9
3392.22
-16473.6
31272.3
-2243.63
-14957.3
34636
-7352.25
-12319.6
36624.1
-11784.7
-9734.46
37570.3
-15681
-7570.63
37843.5
-18778.5
-6173.24
37577.4
-20410.4
-5594.43
36284.8
-19497.6
-5465.2
31979.3
-14409.5
-5654.47
22360.6
-6812.63
-5650.54
8174.55
-1939.47
-6342.83
-7272.92
-2779.13
-7074.07
-20063.6
-5498.89
-9027.63
-26922
-8460.25
-12068.6
-28215.9
-11033.1
-14819
-26668.9
-12865.5
-15988.6
-24313.8
-15068.1
-14932.1
-22411.5
-18877.2
-11454
-20846.2
-24980.1