/*--------------------------------*- C++ -*----------------------------------*\
  =========                 |
  \\      /  F ield         | OpenFOAM: The Open Source CFD Toolbox
   \\    /   O peration     | Website:  https://openfoam.org
    \\  /    A nd           | Version:  11
     \\/     M anipulation  |
\*---------------------------------------------------------------------------*/
FoamFile
{
    format      ascii;
    class       volVectorField;
    location    "5";
    object      U;
}
// * * * * * * * * * * * * * * * * * * * * * * * * * * * * * * * * * * * * * //

dimensions      [0 1 -1 0 0 0 0];

internalField   nonuniform List<vector> 
17196
(
(-1.28417 1.44805 1.04855)
(0.549241 1.58742 0.160934)
(0.561516 2.08555 0.382565)
(1.74946 0.15299 0.688866)
(3.68413 -0.452672 1.01133)
(5.59183 -0.634551 1.22108)
(6.66417 -0.540668 1.34136)
(7.00916 -0.365867 1.39785)
(6.83722 -0.197032 1.40964)
(6.31927 -0.0546464 1.39131)
(5.54515 0.0674542 1.37747)
(4.48616 0.181302 1.38469)
(3.06469 0.31125 1.39263)
(1.12073 0.457645 1.3432)
(-0.987635 0.56787 1.10588)
(-5.57081 0.426524 0.231199)
(-3.3874 -0.436907 0.63635)
(-5.3653 0.107767 0.0326623)
(-4.38095 -0.676709 -1.61387)
(-0.9432 -0.394342 -1.06496)
(-1.87013 -0.452562 -0.520477)
(0.330433 -0.382777 1.30953)
(-0.416799 0.168901 -0.424427)
(0.289134 -0.119845 -2.79388)
(3.23313 -0.672324 -4.2696)
(-1.18701 1.41781 1.15961)
(0.0783346 0.310343 0.604634)
(1.32002 0.817875 0.745424)
(4.32528 -1.63223 0.39308)
(6.71326 -2.40848 0.296023)
(8.53746 -2.26645 0.422662)
(9.61555 -1.89082 0.58193)
(10.0634 -1.53345 0.707637)
(10.0445 -1.23138 0.792553)
(9.6991 -0.976338 0.849109)
(9.114 -0.742335 0.909925)
(8.31328 -0.503564 0.987838)
(7.30068 -0.225518 1.06049)
(6.10981 0.0947317 1.09457)
(4.81625 0.429128 1.0717)
(2.76347 0.33034 0.864587)
(1.61184 -0.279998 1.00004)
(-2.34977 -0.342182 0.52567)
(-7.80656 -0.829095 -2.27179)
(0.410409 -0.574079 -1.54554)
(-2.08433 -0.28448 -1.34268)
(-1.57623 -0.256543 -1.64227)
(-0.314288 0.468691 -1.7627)
(1.49252 0.790694 -3.36686)
(3.93017 0.407947 -4.36147)
(-0.750524 1.34709 0.787808)
(0.361058 1.90832 -0.00741869)
(2.75304 -0.553198 0.296796)
(5.71447 -2.88331 -0.218963)
(8.09375 -3.32726 -0.339546)
(9.83168 -3.02205 -0.174015)
(10.8366 -2.53963 0.054656)
(11.2292 -2.07792 0.246975)
(11.1609 -1.68291 0.389568)
(10.7661 -1.34852 0.505758)
(10.1348 -1.04625 0.625157)
(9.30555 -0.746628 0.752494)
(8.3076 -0.422144 0.860891)
(7.19903 -0.0769401 0.920819)
(6.11717 0.247775 0.926729)
(4.76111 0.222277 0.874422)
(3.35126 -0.146074 1.02043)
(0.229372 0.159878 1.17917)
(-5.48317 -1.34599 -2.09885)
(-2.76819 -1.57005 -3.5464)
(-0.993768 -0.571025 -2.56466)
(-0.181889 -0.740292 -1.7041)
(-0.15626 0.29137 -1.51508)
(0.62735 0.982947 -2.76371)
(2.49815 0.748731 -3.67254)
(-0.561874 1.45541 0.434308)
(0.930786 1.29452 0.271681)
(3.90928 -1.83726 -0.0394836)
(6.67184 -3.62671 -0.555882)
(8.83592 -3.80661 -0.668539)
(10.4744 -3.41078 -0.496183)
(11.3871 -2.86431 -0.224109)
(11.6756 -2.34575 0.0147615)
(11.5106 -1.90763 0.195747)
(11.0361 -1.54287 0.350242)
(10.3305 -1.21774 0.508717)
(9.42286 -0.898532 0.668308)
(8.36142 -0.568104 0.795272)
(7.21946 -0.237332 0.860552)
(6.09765 0.0631622 0.862959)
(4.86171 0.215109 0.832024)
(3.40388 0.240819 0.885514)
(1.82604 0.203006 1.164)
(-4.74242 -0.649895 -2.01767)
(-4.34853 -1.58669 -4.04541)
(-1.9076 -1.13756 -4.23542)
(0.390273 -1.17653 -2.86044)
(0.00456454 -0.463926 -1.42528)
(0.231109 0.885807 -2.40907)
(0.927512 1.1423 -2.98714)
(-0.455332 1.67867 0.124578)
(1.62824 0.521181 0.137859)
(4.76151 -2.77899 -0.35356)
(7.36701 -4.14014 -0.789714)
(9.35563 -4.11993 -0.8511)
(10.8375 -3.6617 -0.667301)
(11.6451 -3.09732 -0.37439)
(11.8114 -2.55973 -0.106802)
(11.546 -2.11048 0.097906)
(10.9947 -1.74008 0.279355)
(10.2215 -1.40673 0.465976)
(9.2607 -1.08511 0.644279)
(8.17259 -0.764857 0.77582)
(7.02216 -0.449641 0.835654)
(5.84643 -0.148274 0.829801)
(4.63165 0.120861 0.793749)
(3.1528 0.415869 0.758801)
(2.37224 0.306151 0.88953)
(-3.01152 -0.455155 -1.4109)
(-4.0549 -1.52447 -3.22892)
(-4.10194 -0.908268 -3.94003)
(-2.70005 -0.459441 -3.68629)
(-1.75853 -0.340588 -2.73919)
(-2.11728 0.601794 -2.40751)
(-0.540807 -0.486272 -0.220016)
(-0.360141 1.77184 -0.0930315)
(2.27614 -0.349273 -0.0166193)
(5.40068 -3.49498 -0.636118)
(7.89855 -4.48175 -0.967242)
(9.75971 -4.32945 -0.971606)
(11.1211 -3.85791 -0.770047)
(11.7932 -3.29854 -0.463572)
(11.829 -2.76298 -0.177444)
(11.4773 -2.32202 0.0458197)
(10.8831 -1.96173 0.25119)
(10.0986 -1.64269 0.461135)
(9.16111 -1.34658 0.652522)
(8.13521 -1.05625 0.783963)
(7.06596 -0.757782 0.841111)
(5.95928 -0.43363 0.844845)
(4.77639 -0.0722077 0.819133)
(3.42167 0.340722 0.763538)
(2.07229 0.789552 0.703027)
(-2.05578 0.393587 -0.477936)
(-4.20746 -1.26693 -2.32753)
(-5.06774 -0.891468 -2.97799)
(-4.53432 -0.262528 -2.98023)
(-3.86761 0.210956 -2.42865)
(-3.74011 0.518496 -1.6105)
(-2.93825 0.383023 -0.532209)
(-0.200764 1.75733 -0.194808)
(2.84017 -1.16035 -0.257701)
(5.89772 -4.00818 -0.886201)
(8.31984 -4.71411 -1.11625)
(10.0712 -4.47943 -1.0723)
(11.3207 -4.01887 -0.862175)
(11.8539 -3.48511 -0.54812)
(11.7901 -2.98084 -0.247637)
(11.4039 -2.57488 -0.00260971)
(10.8345 -2.25212 0.229896)
(10.117 -1.98417 0.463651)
(9.27879 -1.74891 0.667323)
(8.37178 -1.51308 0.806277)
(7.42225 -1.24463 0.880024)
(6.4215 -0.913453 0.918321)
(5.33229 -0.487825 0.946781)
(4.10038 0.0399101 0.942283)
(2.86478 0.654501 0.863068)
(0.395186 1.04266 0.385264)
(-3.71184 -0.226698 -1.36045)
(-4.04281 -0.961005 -2.04118)
(-4.70856 -0.558245 -2.30884)
(-3.89555 0.118723 -1.8808)
(-3.84721 0.423901 -1.07629)
(-1.91068 0.103004 -0.291423)
(0.0296398 1.79186 0.043475)
(3.3576 -1.8602 -0.458023)
(6.30379 -4.35382 -1.09919)
(8.65004 -4.85224 -1.25974)
(10.2913 -4.58165 -1.18014)
(11.424 -4.15089 -0.967088)
(11.8508 -3.66357 -0.646519)
(11.7475 -3.22103 -0.327336)
(11.3918 -2.87925 -0.052198)
(10.9029 -2.62748 0.213255)
(10.2866 -2.44373 0.472939)
(9.5501 -2.29674 0.692394)
(8.73382 -2.13553 0.850648)
(7.86511 -1.92162 0.964046)
(6.95197 -1.62666 1.07211)
(5.98169 -1.216 1.20749)
(4.90664 -0.65361 1.34757)
(3.76766 0.0586242 1.39101)
(2.32116 0.860073 1.15064)
(-1.26052 0.891538 -0.0288817)
(-2.10223 -1.28132 -1.32493)
(-3.1546 -1.03181 -1.43096)
(-3.00712 -0.660686 -1.49058)
(-2.48661 -0.0294576 -0.706275)
(-0.558003 0.0984028 0.210082)
(0.485819 1.30484 0.695693)
(3.79452 -2.3952 -0.645625)
(6.62195 -4.52408 -1.3119)
(8.8863 -4.87891 -1.41513)
(10.4143 -4.61673 -1.30272)
(11.429 -4.23687 -1.07512)
(11.8058 -3.82559 -0.738699)
(11.7297 -3.47404 -0.393773)
(11.4477 -3.22719 -0.0870428)
(11.0457 -3.07553 0.206222)
(10.5048 -2.999 0.485709)
(9.82954 -2.96217 0.721731)
(9.07939 -2.91011 0.9114)
(8.31223 -2.80836 1.09509)
(7.56864 -2.63334 1.32181)
(6.84521 -2.34233 1.61255)
(6.07719 -1.8676 1.93081)
(5.18031 -1.14271 2.16503)
(4.29493 -0.311911 2.1406)
(2.0943 0.559996 1.51077)
(-0.997863 0.434507 0.155351)
(-1.31319 -1.76361 -1.2156)
(-1.80412 -1.32947 -1.22778)
(-1.26161 -0.627863 -0.948375)
(0.0174017 -0.0981376 0.0918815)
(0.967345 0.639163 0.855037)
(4.09236 -2.70221 -0.914551)
(6.82806 -4.52461 -1.55367)
(9.0179 -4.79322 -1.59024)
(10.4463 -4.56962 -1.42379)
(11.3681 -4.26647 -1.15899)
(11.7588 -3.96629 -0.800576)
(11.7496 -3.72749 -0.435445)
(11.5353 -3.5912 -0.110848)
(11.1807 -3.55546 0.192423)
(10.6745 -3.60684 0.478632)
(10.0523 -3.7149 0.732326)
(9.40899 -3.83134 0.971814)
(8.82911 -3.92177 1.2526)
(8.36253 -3.95697 1.61195)
(7.98551 -3.8711 2.03391)
(7.59067 -3.55072 2.45828)
(7.05838 -2.90236 2.78916)
(6.33138 -1.93918 2.8981)
(5.46847 -1.11005 2.68656)
(3.38712 -0.425103 2.02592)
(0.198556 -0.111708 0.83206)
(-2.39121 -1.29056 -0.874392)
(-0.790184 -1.47298 -1.22922)
(-0.977859 -0.271621 -0.286393)
(1.26266 0.190412 0.819427)
(4.24084 -2.77112 -1.21294)
(6.92567 -4.35527 -1.79917)
(9.06008 -4.59488 -1.75141)
(10.4157 -4.43576 -1.50713)
(11.2799 -4.23573 -1.19016)
(11.7152 -4.06766 -0.825949)
(11.7608 -3.95108 -0.464218)
(11.5707 -3.92621 -0.144821)
(11.2231 -4.01719 0.153064)
(10.7452 -4.22592 0.441272)
(10.2144 -4.52655 0.719605)
(9.74311 -4.87109 1.01962)
(9.40908 -5.21492 1.38601)
(9.23714 -5.5047 1.81969)
(9.17798 -5.64716 2.26876)
(9.1071 -5.4961 2.67197)
(8.8935 -4.92867 2.9696)
(8.452 -3.9665 3.09955)
(7.74379 -2.86276 3.06304)
(6.60189 -1.99715 2.83093)
(4.83189 -1.39584 2.36917)
(1.38821 -0.765159 1.48057)
(-2.2559 -1.13209 -0.160168)
(-2.91877 -0.165171 -0.558028)
(1.47909 -0.216528 0.739657)
(4.28654 -2.71071 -1.48707)
(6.93242 -4.06308 -2.01285)
(9.03795 -4.31504 -1.86772)
(10.3452 -4.24384 -1.54574)
(11.1703 -4.15512 -1.18801)
(11.6245 -4.10469 -0.839642)
(11.6838 -4.10287 -0.500962)
(11.4873 -4.19289 -0.197455)
(11.1449 -4.42682 0.0969741)
(10.7238 -4.8226 0.395226)
(10.3237 -5.35013 0.697027)
(10.0497 -5.94779 1.03087)
(9.94448 -6.55198 1.42148)
(9.99334 -7.07594 1.82977)
(10.1378 -7.40879 2.18076)
(10.2808 -7.39691 2.44073)
(10.3072 -6.90162 2.6115)
(10.1162 -5.94318 2.69662)
(9.6369 -4.74327 2.74464)
(8.7238 -3.56962 2.76247)
(7.22077 -2.5201 2.67974)
(5.11185 -1.70053 2.39884)
(1.85117 -1.03404 1.68342)
(-1.47023 -0.469084 0.25485)
(1.63597 -0.504475 0.59118)
(4.24847 -2.4861 -1.73716)
(6.88597 -3.66346 -2.17337)
(8.98384 -3.96868 -1.93799)
(10.2539 -4.00021 -1.5588)
(11.0294 -4.00954 -1.17778)
(11.4312 -4.04795 -0.835647)
(11.4887 -4.15545 -0.52315)
(11.2961 -4.37659 -0.232147)
(10.9917 -4.7732 0.0592448)
(10.6568 -5.36506 0.362922)
(10.3887 -6.11421 0.663001)
(10.2722 -6.93981 0.976264)
(10.31 -7.75403 1.31032)
(10.4567 -8.44286 1.5965)
(10.6692 -8.89358 1.75373)
(10.9053 -8.96517 1.79154)
(11.0858 -8.53469 1.79063)
(11.1032 -7.61715 1.82006)
(10.8589 -6.40223 1.92358)
(10.2121 -5.08844 2.10781)
(9.06415 -3.79572 2.30284)
(7.28558 -2.60493 2.36313)
(5.27095 -1.73558 2.18082)
(2.34709 -0.677412 1.32245)
(1.77271 -0.670294 0.368008)
(4.19619 -2.14957 -1.98118)
(6.82796 -3.1897 -2.30708)
(8.91928 -3.57817 -1.99048)
(10.1685 -3.71533 -1.56423)
(10.8927 -3.80749 -1.15968)
(11.2374 -3.92912 -0.80764)
(11.2857 -4.14381 -0.501855)
(11.0994 -4.49669 -0.215167)
(10.8365 -5.04771 0.0583562)
(10.5739 -5.80399 0.336501)
(10.3854 -6.72038 0.591911)
(10.3349 -7.70396 0.825992)
(10.3963 -8.64466 1.03373)
(10.5127 -9.40878 1.13662)
(10.6749 -9.89463 1.06438)
(10.9005 -9.9942 0.875304)
(11.1613 -9.62716 0.730641)
(11.3649 -8.81023 0.734456)
(11.3842 -7.68023 0.897624)
(11.0775 -6.35106 1.19225)
(10.3332 -4.9424 1.55192)
(8.96425 -3.5779 1.86379)
(7.31123 -2.43901 1.9898)
(5.23962 -1.58393 1.44856)
(1.87854 -0.680345 0.111904)
(4.15089 -1.68655 -2.23268)
(6.80113 -2.64789 -2.42547)
(8.88202 -3.15173 -2.02234)
(10.1231 -3.39768 -1.54568)
(10.8164 -3.57559 -1.10878)
(11.1122 -3.78012 -0.737448)
(11.1356 -4.09577 -0.42798)
(10.9536 -4.56165 -0.155831)
(10.7044 -5.22485 0.0823666)
(10.4579 -6.07607 0.302386)
(10.2639 -7.06652 0.47066)
(10.167 -8.1074 0.57688)
(10.136 -9.08276 0.613939)
(10.1245 -9.84581 0.524798)
(10.1566 -10.3017 0.267155)
(10.3015 -10.3934 -0.0670193)
(10.5991 -10.1034 -0.290274)
(11.0122 -9.45716 -0.30671)
(11.3668 -8.49459 -0.115366)
(11.4631 -7.26173 0.24764)
(11.134 -5.82951 0.709924)
(10.1414 -4.3784 1.17674)
(8.77422 -3.12505 1.53472)
(6.74756 -2.2637 1.23665)
(1.95548 -0.55615 -0.111082)
(4.12534 -1.16153 -2.45227)
(6.78582 -2.077 -2.51847)
(8.8628 -2.71256 -2.01768)
(10.1101 -3.0775 -1.48894)
(10.7979 -3.34456 -1.02207)
(11.06 -3.63047 -0.634825)
(11.0427 -4.02704 -0.323781)
(10.8474 -4.56998 -0.0776289)
(10.5787 -5.28312 0.113207)
(10.2886 -6.13895 0.256493)
(10.0104 -7.09051 0.308721)
(9.78262 -8.07568 0.25764)
(9.58896 -8.99397 0.119561)
(9.40585 -9.68921 -0.111365)
(9.27389 -10.0523 -0.445966)
(9.30354 -10.0866 -0.796206)
(9.60471 -9.88689 -1.02515)
(10.2301 -9.50009 -1.07308)
(11.0114 -8.80596 -0.930375)
(11.5739 -7.75593 -0.576904)
(11.6547 -6.38384 -0.0648245)
(10.9602 -4.92459 0.516364)
(9.79778 -3.61983 1.03693)
(7.78886 -2.76779 0.938877)
(1.9949 -0.337088 -0.254566)
(4.0608 -0.557848 -2.5846)
(6.75781 -1.48081 -2.55011)
(8.83248 -2.26724 -1.97657)
(10.0915 -2.76317 -1.41143)
(10.7885 -3.12144 -0.929081)
(11.0317 -3.48334 -0.531064)
(10.9752 -3.9364 -0.219056)
(10.7455 -4.51262 0.00600632)
(10.4307 -5.20961 0.149866)
(10.0812 -5.99263 0.207115)
(9.73041 -6.82361 0.137751)
(9.41071 -7.67392 -0.0586094)
(9.12541 -8.48086 -0.330081)
(8.86492 -9.0989 -0.631007)
(8.70054 -9.41614 -0.954173)
(8.7367 -9.44946 -1.25331)
(9.0373 -9.31035 -1.45184)
(9.57729 -9.02925 -1.52733)
(10.4374 -8.54923 -1.4633)
(11.5507 -7.8061 -1.21255)
(12.0319 -6.59066 -0.71409)
(11.5568 -5.22117 -0.0467367)
(10.5468 -3.95244 0.572194)
(8.59933 -3.12716 0.617991)
(2.00966 -0.047918 -0.313165)
(3.95668 0.0971644 -2.61662)
(6.70661 -0.866604 -2.51997)
(8.77761 -1.82653 -1.9229)
(10.0549 -2.4579 -1.34873)
(10.7702 -2.91257 -0.85919)
(11.0072 -3.33615 -0.448035)
(10.9198 -3.81925 -0.128681)
(10.6474 -4.38348 0.0834443)
(10.29 -5.01782 0.179217)
(9.90836 -5.68518 0.151983)
(9.53532 -6.36077 -0.0163783)
(9.20084 -7.04951 -0.312509)
(8.90871 -7.72807 -0.668029)
(8.64284 -8.27102 -1.00591)
(8.48623 -8.55971 -1.30368)
(8.54573 -8.5952 -1.55604)
(8.88745 -8.4896 -1.72539)
(9.47166 -8.31202 -1.80328)
(10.2422 -7.99043 -1.78125)
(11.3878 -7.4405 -1.61711)
(12.2731 -6.52118 -1.20176)
(11.9616 -5.34379 -0.497264)
(11.1072 -4.18583 0.163037)
(9.26563 -3.38509 0.303047)
(1.99784 0.292378 -0.3178)
(3.88611 0.671793 -2.49275)
(6.67877 -0.239069 -2.44424)
(8.72323 -1.39149 -1.8637)
(10.026 -2.15428 -1.30736)
(10.7555 -2.69793 -0.812334)
(10.9868 -3.16555 -0.383325)
(10.869 -3.65051 -0.0529931)
(10.5572 -4.17137 0.145797)
(10.1727 -4.70936 0.191548)
(9.79612 -5.23568 0.0823434)
(9.45699 -5.75331 -0.164253)
(9.1794 -6.29682 -0.513968)
(8.94201 -6.86343 -0.906591)
(8.7096 -7.33983 -1.26309)
(8.55953 -7.60267 -1.55001)
(8.61865 -7.64449 -1.77822)
(8.95447 -7.56347 -1.93474)
(9.55218 -7.43893 -2.006)
(10.2757 -7.2509 -1.98568)
(11.2515 -6.89944 -1.85959)
(12.2835 -6.28767 -1.54828)
(12.0824 -5.35159 -0.869669)
(11.3853 -4.34636 -0.207443)
(9.58726 -3.53279 0.0155402)
(2.0698 0.460749 -0.288432)
(3.87139 1.0553 -2.14732)
(6.65294 0.417373 -2.32172)
(8.67747 -0.90991 -1.80135)
(10.0113 -1.797 -1.28411)
(10.7496 -2.40939 -0.785579)
(10.9642 -2.91111 -0.334144)
(10.812 -3.38526 0.00479974)
(10.4764 -3.85236 0.18637)
(10.1128 -4.28276 0.185889)
(9.81056 -4.6601 0.00356696)
(9.56403 -5.02188 -0.307193)
(9.37507 -5.44185 -0.683584)
(9.18686 -5.92133 -1.07426)
(8.94614 -6.34589 -1.42849)
(8.72012 -6.58763 -1.71658)
(8.68437 -6.64812 -1.95101)
(8.90319 -6.60405 -2.12358)
(9.40006 -6.50856 -2.20184)
(10.0233 -6.38754 -2.16732)
(10.7472 -6.20931 -2.0293)
(11.6139 -5.88814 -1.76282)
(11.5823 -5.24226 -1.15622)
(11.0279 -4.39283 -0.489077)
(9.0279 -3.50221 -0.165769)
(1.87134 0.595306 -0.173982)
(3.5844 1.51104 -1.75399)
(6.42121 0.98207 -2.06775)
(8.59083 -0.360069 -1.71038)
(9.98175 -1.33095 -1.2298)
(10.7317 -2.0032 -0.730599)
(10.9149 -2.53094 -0.277077)
(10.7391 -3.00352 0.048017)
(10.4394 -3.43646 0.205687)
(10.2035 -3.78825 0.182446)
(10.0573 -4.00987 -0.028767)
(9.90609 -4.18487 -0.368514)
(9.72187 -4.45786 -0.750625)
(9.44682 -4.83817 -1.12756)
(9.03022 -5.20647 -1.48324)
(8.53696 -5.43005 -1.8114)
(8.24411 -5.5235 -2.10887)
(8.24515 -5.53287 -2.34073)
(8.56848 -5.47762 -2.43886)
(9.07601 -5.42049 -2.36564)
(9.60326 -5.42874 -2.15503)
(10.1845 -5.43877 -1.82258)
(10.1211 -5.06525 -1.22641)
(9.41276 -4.26496 -0.512172)
(6.56344 -3.21653 -0.031203)
(1.54101 0.631932 -0.0104129)
(3.24258 1.79062 -1.22852)
(6.09399 1.36055 -1.57641)
(8.40498 0.250947 -1.47079)
(9.86874 -0.750341 -1.06099)
(10.6253 -1.44906 -0.599992)
(10.7931 -2.00103 -0.189522)
(10.6668 -2.51695 0.10102)
(10.5402 -2.99407 0.254443)
(10.5468 -3.33204 0.279794)
(10.4851 -3.36072 0.122718)
(10.175 -3.26345 -0.198052)
(9.67371 -3.31395 -0.595914)
(9.02014 -3.52707 -1.00254)
(8.17694 -3.78125 -1.4261)
(7.26921 -3.96205 -1.88068)
(6.66055 -4.10407 -2.31689)
(6.50863 -4.2132 -2.63247)
(6.7826 -4.27866 -2.72102)
(7.28343 -4.37906 -2.54751)
(7.78334 -4.6499 -2.20047)
(8.11316 -4.9933 -1.67345)
(7.14369 -4.70361 -0.813317)
(5.368 -3.62592 -0.00838879)
(0.622559 -2.34686 0.642013)
(1.30762 0.549518 0.0407763)
(2.92175 1.80435 -0.57839)
(5.69353 1.53334 -0.85866)
(8.03448 0.702172 -0.887284)
(9.50727 -0.130972 -0.661118)
(10.2911 -0.798649 -0.324177)
(10.557 -1.403 0.0107731)
(10.613 -2.03023 0.294716)
(10.6865 -2.63433 0.535864)
(10.7048 -2.97145 0.726814)
(10.0407 -2.73127 0.645573)
(8.82293 -2.30508 0.309849)
(7.45901 -2.1092 -0.181058)
(6.23839 -2.08302 -0.73791)
(5.01083 -2.12159 -1.36352)
(3.95415 -2.18585 -2.06151)
(3.47626 -2.38942 -2.67466)
(3.64869 -2.67134 -3.03049)
(4.31128 -2.95619 -3.02035)
(5.10582 -3.31662 -2.66898)
(5.77486 -3.83381 -2.12696)
(5.465 -4.23124 -1.18035)
(1.86518 -3.63401 0.206042)
(-1.55678 -2.23813 0.810609)
(-5.88998 -0.654932 1.05887)
(1.18964 0.324917 -0.0372686)
(2.65096 1.48558 -0.00792796)
(5.22482 1.40981 -0.0518801)
(7.4883 0.914116 -0.0957238)
(8.84242 0.358906 0.044543)
(9.59945 -0.279568 0.287823)
(9.93498 -0.938372 0.60753)
(9.77711 -1.6056 0.967585)
(9.16079 -2.18608 1.36566)
(7.83549 -2.33274 1.73839)
(4.36 -1.90255 1.26848)
(1.21132 -1.29719 0.479941)
(-0.931477 -0.992587 -0.21877)
(-1.97184 -0.79309 -0.942483)
(-2.28662 -0.622559 -1.76381)
(-1.91678 -0.557163 -2.67358)
(-0.740979 -0.789765 -3.28904)
(0.894748 -1.21139 -3.48605)
(2.7139 -1.69118 -3.25566)
(4.24847 -2.23505 -2.71889)
(5.12183 -2.7267 -2.10479)
(3.04647 -2.73372 -0.815206)
(-3.23004 -2.15029 0.635377)
(-2.56565 -1.23827 -0.0017765)
(-1.47753 0.0621072 -0.159619)
(1.14428 0.0871244 -0.144642)
(2.52944 0.671446 0.248255)
(4.76808 0.704451 0.685392)
(6.70624 0.529097 0.911621)
(7.88012 0.306737 1.13205)
(7.87762 -0.00826553 1.31015)
(6.43864 -0.407528 1.43965)
(3.51029 -0.88455 1.52551)
(-0.73688 -1.40518 1.6163)
(-7.01344 -1.45064 1.47679)
(-15.183 -0.334043 -2.03963)
(-11.8948 0.369736 -3.79065)
(-8.68147 0.396841 -4.05227)
(-6.14886 0.318891 -3.73275)
(-4.0337 0.32547 -3.17429)
(-2.32051 0.43947 -2.57986)
(0.194616 0.294566 -2.68651)
(2.96194 -0.0294003 -2.9312)
(4.78451 -0.425647 -2.7716)
(5.6456 -0.835912 -2.43853)
(5.14316 -0.993752 -2.19021)
(4.76874 -0.845384 -2.33201)
(0.96548 -0.904318 -0.713605)
(-1.43232 -0.910415 -0.338852)
(-2.83741 -0.150922 0.0193529)
(0.208775 1.22349 1.03813)
(1.66242 0.990172 -2.12232)
(1.22277 1.6488 -0.227012)
(3.52279 0.0997522 1.13555)
(6.23882 -0.585963 2.00536)
(8.69533 -0.743053 2.60643)
(10.3962 -0.645506 2.99156)
(11.425 -0.48424 3.17618)
(11.9943 -0.334881 3.21311)
(12.2594 -0.211825 3.18105)
(12.2803 -0.0978358 3.14649)
(12.0377 0.0227142 3.13595)
(11.4624 0.158631 3.13328)
(10.464 0.315888 3.08855)
(8.9804 0.49983 2.94975)
(6.48089 0.646625 2.57461)
(4.32249 0.625676 2.27768)
(3.42631 0.263863 2.11031)
(2.92121 0.0559979 0.723679)
(1.75929 0.148611 -0.324293)
(0.319215 0.263961 -0.00832355)
(0.0803399 1.17168 -0.516903)
(1.19345 0.541272 -3.10822)
(2.94396 -0.305332 -5.01675)
(3.19139 -0.820272 -4.4589)
(-0.0996819 1.03217 1.13029)
(0.558679 0.655688 -1.22648)
(2.59619 0.16489 -0.219488)
(5.6275 -1.53286 -0.122692)
(8.19387 -1.8481 0.296271)
(10.2276 -1.57617 0.872179)
(11.6773 -1.22626 1.38305)
(12.7028 -0.99213 1.75329)
(13.4595 -0.881538 1.99296)
(13.9891 -0.832457 2.15474)
(14.2712 -0.77939 2.28616)
(14.2871 -0.683283 2.40863)
(14.0264 -0.529266 2.51806)
(13.4727 -0.325255 2.58458)
(12.6496 -0.099626 2.58554)
(11.5408 0.00363293 2.49058)
(10.2617 -0.0265489 2.45533)
(8.78642 -0.374732 2.4639)
(6.91542 -0.186224 1.5552)
(4.63073 0.647792 0.395774)
(1.90755 1.27926 -0.31444)
(1.27757 1.48569 -0.774572)
(2.44526 1.26061 -1.54291)
(4.35022 1.01758 -3.63986)
(3.76163 0.315389 -4.17345)
(-0.022348 1.23273 0.871692)
(0.643103 0.534005 -0.955263)
(3.90778 -1.47485 -0.906989)
(6.72604 -2.85607 -1.09471)
(8.64851 -2.73892 -0.790628)
(10.0499 -2.16104 -0.19231)
(11.1802 -1.66606 0.423996)
(12.1605 -1.41326 0.94197)
(13.0123 -1.3427 1.34623)
(13.6681 -1.32595 1.65564)
(14.0534 -1.2673 1.90186)
(14.1316 -1.13245 2.10954)
(13.9044 -0.922486 2.27875)
(13.4145 -0.657818 2.38762)
(12.7093 -0.384929 2.42772)
(11.7491 -0.182121 2.40154)
(10.5644 -0.0390898 2.44342)
(9.1525 -0.174956 2.58212)
(7.05395 -0.350804 2.01863)
(5.07125 0.30096 0.906056)
(3.11503 0.940444 0.00431887)
(1.73128 1.16576 -0.277058)
(2.19729 1.23183 0.0553705)
(3.80331 1.3943 -1.53446)
(3.91495 0.761408 -2.83869)
(0.0147232 1.37619 0.538723)
(1.76051 -0.197208 -0.810913)
(5.11222 -2.88183 -1.41384)
(7.42006 -3.76971 -1.524)
(8.8001 -3.23137 -1.16499)
(9.64673 -2.36033 -0.556815)
(10.61 -1.81842 0.142806)
(11.6654 -1.65415 0.768212)
(12.6208 -1.69018 1.26369)
(13.3068 -1.72938 1.63022)
(13.658 -1.66927 1.90997)
(13.6807 -1.51522 2.14501)
(13.4067 -1.29683 2.33443)
(12.9046 -1.02919 2.45874)
(12.2353 -0.728335 2.51728)
(11.3369 -0.416279 2.53305)
(10.1126 -0.0681231 2.60807)
(8.55586 0.170849 2.75755)
(6.26567 0.112075 2.26551)
(4.24148 0.477095 1.31092)
(2.42875 0.803443 0.39402)
(0.852914 0.632792 0.104918)
(0.858056 0.864437 0.325901)
(2.54892 1.51673 -0.50624)
(3.51228 1.20864 -1.67576)
(-0.204673 1.3868 0.0449956)
(2.79458 -1.29659 -1.29559)
(5.83637 -4.10242 -2.00494)
(7.49961 -4.49503 -1.85715)
(8.43232 -3.67454 -1.34407)
(9.11421 -2.74461 -0.664312)
(10.1156 -2.28754 0.133971)
(11.2853 -2.2373 0.847552)
(12.2535 -2.312 1.37542)
(12.8655 -2.31741 1.74087)
(13.1294 -2.20987 2.02513)
(13.0926 -2.04403 2.27824)
(12.811 -1.85713 2.49037)
(12.3611 -1.63798 2.64687)
(11.7823 -1.34839 2.74343)
(10.9883 -0.950995 2.8006)
(9.8308 -0.424367 2.90079)
(8.31536 0.129789 3.07034)
(5.901 0.197195 2.60929)
(3.6581 0.473326 1.71559)
(1.96577 0.708706 0.778192)
(0.0167188 0.205408 0.0799076)
(-0.783425 0.24356 0.3744)
(0.780779 1.21029 -0.00308291)
(2.02219 1.75531 -1.02111)
(-0.156495 1.45626 -0.130417)
(3.68389 -2.41529 -1.82563)
(6.12367 -5.00134 -2.52687)
(7.23375 -5.00693 -2.10318)
(7.85878 -4.07698 -1.42856)
(8.51618 -3.21677 -0.63407)
(9.62449 -2.8775 0.269511)
(10.8246 -2.87462 1.02658)
(11.7142 -2.90297 1.53493)
(12.2285 -2.84022 1.87024)
(12.4392 -2.71502 2.15986)
(12.4225 -2.60492 2.45296)
(12.2478 -2.52642 2.72055)
(11.9536 -2.4213 2.93939)
(11.5349 -2.20007 3.10094)
(10.9208 -1.79255 3.21903)
(9.97664 -1.18426 3.35015)
(8.68863 -0.44057 3.47889)
(6.49172 0.0703608 3.18657)
(3.83159 0.383112 2.26132)
(2.31173 0.591922 1.40484)
(0.188387 0.207882 0.324609)
(-2.48194 -0.313378 -0.29197)
(-0.767962 0.568004 -0.5464)
(0.236569 1.73538 -1.84058)
(0.546282 1.41568 0.00204788)
(4.38076 -3.48398 -2.45853)
(6.12512 -5.64662 -2.96824)
(6.75939 -5.37489 -2.27653)
(7.18191 -4.45966 -1.44199)
(7.83378 -3.72623 -0.515119)
(8.97111 -3.48186 0.452336)
(10.0988 -3.46985 1.18511)
(10.8937 -3.43226 1.63515)
(11.3714 -3.3413 1.94638)
(11.621 -3.28296 2.27909)
(11.7201 -3.32929 2.65764)
(11.7186 -3.44578 3.02234)
(11.6086 -3.51658 3.34024)
(11.374 -3.42193 3.60158)
(10.9822 -3.07194 3.80804)
(10.333 -2.44501 3.97138)
(9.37617 -1.58731 4.06805)
(7.82568 -0.68213 3.91076)
(5.28221 -0.0337876 3.14744)
(3.17995 0.357711 2.25202)
(1.46589 0.402437 1.41161)
(-1.80305 0.16808 0.121875)
(-3.12129 0.453307 -1.24887)
(-1.91347 1.33772 -2.08227)
(1.81825 0.510394 0.152727)
(4.85017 -4.37902 -3.08973)
(5.9165 -6.05268 -3.34999)
(6.14569 -5.6003 -2.38476)
(6.41641 -4.76153 -1.38724)
(7.04946 -4.16622 -0.364782)
(8.12758 -3.98484 0.590705)
(9.12856 -3.94986 1.2446)
(9.85346 -3.88827 1.64122)
(10.3616 -3.8495 1.98444)
(10.7182 -3.95608 2.42566)
(10.9755 -4.25778 2.93575)
(11.1478 -4.6523 3.43005)
(11.206 -4.95926 3.86218)
(11.1546 -5.01833 4.20729)
(10.9735 -4.72183 4.45912)
(10.5832 -4.05187 4.62326)
(9.93692 -3.0819 4.687)
(8.94369 -1.95348 4.57837)
(7.04975 -0.891619 4.06345)
(4.65201 -0.242607 3.26075)
(2.76089 0.136853 2.47393)
(0.782455 0.233636 1.58415)
(-1.96607 0.662802 -0.0763732)
(-2.74415 1.24922 -1.4826)
(2.61317 -0.385544 -0.393224)
(4.98011 -4.93384 -3.78459)
(5.51665 -6.19418 -3.68076)
(5.46446 -5.6736 -2.45956)
(5.61263 -4.94409 -1.33378)
(6.2064 -4.48391 -0.278344)
(7.15229 -4.33566 0.620537)
(8.00369 -4.28226 1.19832)
(8.66974 -4.2625 1.59457)
(9.23108 -4.38174 2.04485)
(9.72248 -4.76587 2.64035)
(10.1445 -5.41787 3.28271)
(10.4629 -6.1454 3.8728)
(10.635 -6.6941 4.34049)
(10.6762 -6.85057 4.66053)
(10.6097 -6.51822 4.87598)
(10.4064 -5.73141 5.02202)
(10.0589 -4.61559 5.08359)
(9.55728 -3.34913 5.03672)
(8.53744 -2.09475 4.779)
(6.51029 -1.03514 4.21526)
(4.32655 -0.513273 3.48527)
(2.57163 -0.147232 2.71984)
(0.868955 0.216574 1.84602)
(-1.00111 1.07996 0.315158)
(3.0846 -1.01432 -0.943473)
(4.88235 -5.18707 -4.40019)
(5.00608 -6.12706 -3.94889)
(4.79781 -5.60478 -2.53547)
(4.832 -4.97618 -1.33619)
(5.32649 -4.60192 -0.318935)
(6.0715 -4.47294 0.524592)
(6.77267 -4.43519 1.08092)
(7.39831 -4.54457 1.54313)
(8.02862 -4.94792 2.14057)
(8.65657 -5.72441 2.87481)
(9.19804 -6.77479 3.58023)
(9.55539 -7.80349 4.1493)
(9.67554 -8.49703 4.51155)
(9.62315 -8.63442 4.67808)
(9.50802 -8.17161 4.78054)
(9.40653 -7.22748 4.89942)
(9.36104 -5.9978 5.00243)
(9.35807 -4.64774 5.08582)
(9.19798 -3.34012 5.11847)
(8.4038 -2.25885 4.91931)
(6.66869 -1.35621 4.46506)
(4.52822 -0.805906 3.76243)
(3.06843 -0.42347 3.04502)
(1.56465 0.322951 2.03315)
(3.36574 -1.49116 -1.45608)
(4.66543 -5.20653 -4.94457)
(4.49637 -5.90325 -4.18397)
(4.21299 -5.41248 -2.62627)
(4.12517 -4.86039 -1.39844)
(4.42409 -4.50999 -0.454232)
(4.91085 -4.3923 0.334816)
(5.49549 -4.44828 0.936708)
(6.14023 -4.80135 1.50344)
(6.87488 -5.58823 2.2253)
(7.5859 -6.78599 3.02322)
(8.09036 -8.1738 3.68003)
(8.25865 -9.38142 4.09351)
(8.08504 -10.0694 4.23705)
(7.74802 -10.067 4.17323)
(7.43896 -9.41615 4.10809)
(7.30257 -8.31729 4.14057)
(7.4561 -7.03498 4.26813)
(7.92459 -5.70506 4.54436)
(8.4315 -4.38165 4.88975)
(8.58247 -3.23054 5.05286)
(8.16252 -2.34908 4.94871)
(6.88734 -1.67041 4.56344)
(5.03749 -1.10128 3.92934)
(3.49885 -0.473121 2.93012)
(3.4988 -1.80279 -1.87353)
(4.37729 -5.0323 -5.41287)
(4.03251 -5.55701 -4.41547)
(3.70914 -5.11694 -2.7352)
(3.49408 -4.6148 -1.48954)
(3.59331 -4.28535 -0.597809)
(3.8496 -4.2033 0.138203)
(4.38556 -4.44551 0.801929)
(5.09978 -5.12703 1.45197)
(5.89705 -6.29139 2.21593)
(6.52544 -7.79689 2.97838)
(6.75247 -9.35916 3.49755)
(6.48123 -10.5837 3.6777)
(5.82665 -11.1357 3.53991)
(5.06648 -10.9023 3.222)
(4.46054 -10.0241 2.97282)
(4.13006 -8.78769 2.90257)
(4.3001 -7.52416 3.0531)
(5.12784 -6.30887 3.50629)
(6.21788 -5.07555 4.14921)
(7.16233 -3.94539 4.64265)
(7.62156 -2.96186 4.85898)
(7.43929 -2.2328 4.7686)
(6.69321 -1.69039 4.39853)
(5.15573 -1.20519 3.42756)
(3.52652 -1.9266 -2.2361)
(4.04139 -4.65684 -5.78875)
(3.58464 -5.087 -4.62308)
(3.24732 -4.72423 -2.84432)
(2.97215 -4.27187 -1.56564)
(2.98354 -4.00178 -0.691881)
(3.20253 -4.04847 0.0170567)
(3.67156 -4.49917 0.686098)
(4.40281 -5.48266 1.3373)
(5.10807 -6.91509 2.03966)
(5.4576 -8.56502 2.68168)
(5.22355 -10.1355 3.01678)
(4.37412 -11.242 2.94475)
(3.1543 -11.5691 2.51448)
(1.92366 -11.0501 1.96397)
(0.994171 -9.92884 1.55982)
(0.384292 -8.59294 1.42531)
(0.392699 -7.42377 1.64538)
(1.40495 -6.39428 2.28617)
(2.96678 -5.31932 3.16464)
(4.5937 -4.40832 3.86098)
(5.84959 -3.56292 4.32629)
(6.5619 -2.80326 4.47704)
(6.96364 -2.20612 4.3263)
(6.51299 -1.95299 3.50474)
(3.50559 -1.89424 -2.62495)
(3.69295 -4.08854 -6.08252)
(3.1824 -4.50306 -4.75969)
(2.86384 -4.27162 -2.9182)
(2.64535 -3.91359 -1.60396)
(2.68133 -3.74521 -0.721702)
(2.92146 -3.93398 -0.0277399)
(3.34593 -4.56534 0.602854)
(4.01102 -5.74083 1.15991)
(4.49128 -7.29662 1.69617)
(4.44232 -8.95804 2.15778)
(3.67354 -10.4232 2.30134)
(2.24628 -11.3365 2.00719)
(0.533973 -11.4136 1.35599)
(-1.06258 -10.6118 0.649967)
(-2.17325 -9.27283 0.143374)
(-2.98056 -7.89137 -0.0293301)
(-3.26159 -6.91536 0.20612)
(-2.39059 -6.19374 0.978469)
(-0.562428 -5.42719 1.98923)
(1.39496 -4.67625 2.86948)
(3.19199 -3.95417 3.48899)
(4.71294 -3.27294 3.79397)
(6.07604 -2.65772 3.80241)
(6.48265 -2.4875 3.15964)
(3.45572 -1.70606 -3.03158)
(3.41098 -3.38273 -6.30585)
(2.95016 -3.86141 -4.82882)
(2.6851 -3.81731 -2.96014)
(2.5733 -3.59543 -1.62537)
(2.67898 -3.53724 -0.711005)
(2.92636 -3.84391 -0.0160873)
(3.30881 -4.60039 0.549718)
(3.8404 -5.83639 0.95377)
(4.07217 -7.3815 1.25308)
(3.62066 -8.9442 1.48708)
(2.35311 -10.2226 1.45828)
(0.472736 -10.9165 1.0213)
(-1.48779 -10.7985 0.289322)
(-3.18505 -9.80988 -0.436942)
(-4.19917 -8.33105 -0.984154)
(-5.01121 -6.96961 -1.22383)
(-5.68048 -6.29667 -1.13904)
(-5.46234 -6.04588 -0.504676)
(-3.99541 -5.52477 0.586025)
(-1.94022 -4.93785 1.75276)
(0.293459 -4.25549 2.53597)
(2.35761 -3.51746 2.98356)
(4.52499 -2.94766 3.14272)
(5.56348 -2.87032 2.72921)
(3.37031 -1.38751 -3.37634)
(3.25699 -2.63282 -6.46917)
(2.94579 -3.21137 -4.88014)
(2.75681 -3.37104 -3.00034)
(2.73287 -3.31042 -1.64254)
(2.9129 -3.36897 -0.680483)
(3.18059 -3.77373 0.032063)
(3.52226 -4.59413 0.530013)
(3.89503 -5.78897 0.766079)
(3.90779 -7.20899 0.797984)
(3.1365 -8.57453 0.76398)
(1.49779 -9.59804 0.582971)
(-0.636324 -10.0689 0.105593)
(-2.58308 -9.84446 -0.587665)
(-4.10869 -8.80536 -1.25838)
(-4.91848 -7.31264 -1.80585)
(-5.60432 -5.99323 -2.12735)
(-6.48634 -5.37043 -2.22525)
(-7.09282 -5.21409 -1.8925)
(-6.70812 -5.28777 -1.17394)
(-4.90361 -5.17628 0.0606076)
(-2.30136 -4.52065 1.36814)
(0.239047 -3.67559 2.18336)
(2.8884 -3.15567 2.62216)
(4.25755 -3.20055 2.48375)
(3.26901 -0.973306 -3.58259)
(3.23398 -1.88573 -6.55964)
(3.14097 -2.56896 -4.94301)
(3.05565 -2.92799 -3.05202)
(3.11185 -3.05418 -1.65706)
(3.37706 -3.25429 -0.649645)
(3.69185 -3.74743 0.0771791)
(4.00215 -4.57601 0.519593)
(4.2422 -5.6618 0.615329)
(4.10507 -6.87521 0.407346)
(3.11575 -7.97276 0.120225)
(1.20809 -8.69687 -0.178614)
(-1.11957 -8.94874 -0.606359)
(-3.18304 -8.67798 -1.19118)
(-4.79531 -7.668 -1.81859)
(-5.63815 -6.25247 -2.33013)
(-6.20737 -5.01811 -2.65615)
(-6.85755 -4.50672 -2.88008)
(-7.33176 -4.50237 -2.8463)
(-7.47943 -4.63104 -2.44467)
(-6.72865 -4.83019 -1.59038)
(-4.15124 -4.74692 0.153198)
(-1.24433 -3.93554 1.51483)
(1.48547 -3.46343 2.34747)