/*--------------------------------*- C++ -*----------------------------------*\
| =========                 |                                                 |
| \\      /  F ield         | OpenFOAM: The Open Source CFD Toolbox           |
|  \\    /   O peration     | Version:  2306                                  |
|   \\  /    A nd           | Website:  www.openfoam.com                      |
|    \\/     M anipulation  |                                                 |
\*---------------------------------------------------------------------------*/
FoamFile
{
    version     2.0;
    format      ascii;
    arch        "LSB;label=32;scalar=64";
    class       volScalarField;
    location    "3.1";
    object      p;
}
// * * * * * * * * * * * * * * * * * * * * * * * * * * * * * * * * * * * * * //

dimensions      [0 2 -2 0 0 0 0];

internalField   nonuniform List<scalar> 
288632
(
56.2136
56.2051
56.2153
56.2371
56.2675
56.3049
56.3523
56.3832
56.4689
56.4556
56.5703
56.5583
56.6017
-1.1991
-1.1053
-1.20134
-0.971773
-0.963737
-0.818163
-0.703457
-0.579951
-0.452998
-0.324213
-0.194888
-0.0651113
56.2068
56.2035
56.2146
56.2364
56.2669
56.3044
56.3518
56.3831
56.4686
56.4561
56.5698
56.5577
56.6019
-1.1998
-1.10612
-1.20289
-0.972928
-0.964913
-0.819206
-0.704323
-0.580665
-0.453554
-0.324609
-0.195126
-0.0651911
56.2043
56.2016
56.2131
56.235
56.2656
56.3031
56.3506
56.3824
56.4677
56.4568
56.5693
56.5577
56.6028
-1.2021
-1.10907
-1.20589
-0.975526
-0.967332
-0.821296
-0.706092
-0.582113
-0.454678
-0.325409
-0.195605
-0.0653508
56.2005
56.1989
56.2109
56.2329
56.2635
56.3012
56.3488
56.3813
56.4664
56.4574
56.5683
56.5585
56.604
-1.20625
-1.11334
-1.21034
-0.979386
-0.970928
-0.824399
-0.70873
-0.584273
-0.456354
-0.326603
-0.19632
-0.0655888
56.1969
56.1959
56.208
56.2301
56.2608
56.2985
56.3463
56.3797
56.4645
56.4582
56.5671
56.5594
56.6053
-1.21203
-1.11924
-1.21617
-0.984532
-0.975672
-0.828484
-0.712206
-0.587115
-0.458561
-0.328175
-0.197261
-0.0659018
56.1931
56.1924
56.2047
56.2268
56.2575
56.2953
56.3432
56.3776
56.4622
56.4591
56.5656
56.5605
56.6068
-1.21932
-1.12645
-1.22328
-0.990837
-0.981474
-0.833489
-0.716467
-0.590602
-0.461267
-0.330103
-0.198415
-0.0662857
56.1892
56.1887
56.201
56.223
56.2537
56.2915
56.3395
56.3752
56.4595
56.4598
56.5645
56.562
56.6087
-1.22799
-1.135
-1.23161
-0.998246
-0.988268
-0.83935
-0.721456
-0.594684
-0.464436
-0.332361
-0.199767
-0.0667353
56.185
56.1846
56.1968
56.2188
56.2493
56.2872
56.3354
56.3723
56.4565
56.4599
56.5641
56.5639
56.6111
-1.23792
-1.14465
-1.24099
-1.00663
-0.995948
-0.845981
-0.727102
-0.599305
-0.468024
-0.334917
-0.201298
-0.0672445
56.1808
56.1803
56.1924
56.2142
56.2446
56.2824
56.3308
56.3692
56.4532
56.4603
56.5639
56.5664
56.6141
-1.24893
-1.15533
-1.25132
-1.01587
-1.0044
-0.853288
-0.733323
-0.604398
-0.471979
-0.337736
-0.202986
-0.0678058
56.1763
56.1758
56.1877
56.2093
56.2395
56.2773
56.3258
56.3657
56.4498
56.4607
56.5643
56.5695
56.618
-1.26086
-1.16682
-1.26243
-1.02583
-1.01351
-0.861162
-0.740029
-0.609888
-0.476243
-0.340775
-0.204806
-0.0684114
56.1719
56.1712
56.1829
56.2042
56.2341
56.2719
56.3206
56.3621
56.4463
56.4612
56.5653
56.5736
56.6229
-1.2735
-1.17897
-1.27414
-1.03636
-1.02313
-0.869484
-0.747119
-0.615696
-0.480755
-0.343991
-0.206732
-0.0690523
56.1674
56.1665
56.178
56.199
56.2286
56.2663
56.3152
56.3584
56.4428
56.4622
56.567
56.5787
56.6292
-1.28666
-1.19157
-1.28629
-1.04728
-1.03311
-0.878129
-0.754486
-0.621731
-0.485445
-0.347335
-0.208736
-0.0697188
56.1629
56.1619
56.173
56.1937
56.223
56.2606
56.3097
56.3547
56.4394
56.4637
56.5696
56.5852
56.637
-1.30014
-1.20443
-1.29867
-1.05844
-1.04331
-0.886962
-0.762016
-0.627902
-0.490241
-0.350756
-0.210785
-0.0704007
56.1586
56.1574
56.1682
56.1885
56.2175
56.255
56.3043
56.351
56.4362
56.4656
56.5734
56.5931
56.6465
-1.31371
-1.21734
-1.31109
-1.06965
-1.05356
-0.895843
-0.76959
-0.634112
-0.495069
-0.354199
-0.212848
-0.0710874
56.1544
56.153
56.1635
56.1834
56.212
56.2494
56.299
56.3476
56.4333
56.4682
56.5783
56.6024
56.6577
-1.32717
-1.2301
-1.32336
-1.08073
-1.06369
-0.904631
-0.777088
-0.640261
-0.49985
-0.357609
-0.214892
-0.0717678
56.1506
56.1489
56.159
56.1785
56.2068
56.2441
56.2939
56.3444
56.4309
56.4713
56.5844
56.6134
56.6708
-1.34029
-1.2425
-1.33528
-1.09151
-1.07354
-0.913183
-0.784387
-0.646249
-0.504508
-0.360933
-0.216884
-0.0724309
56.147
56.1451
56.1548
56.1739
56.2018
56.239
56.2891
56.3415
56.4288
56.4749
56.5917
56.6255
56.6856
-1.35286
-1.25435
-1.34664
-1.10181
-1.08295
-0.921358
-0.791368
-0.651977
-0.508964
-0.364113
-0.21879
-0.0730657
56.1439
56.1418
56.151
56.1697
56.1972
56.2343
56.2847
56.339
56.4272
56.4789
56.5999
56.6385
56.7016
-1.36468
-1.26544
-1.35727
-1.11145
-1.09177
-0.929021
-0.797913
-0.65735
-0.513146
-0.367097
-0.22058
-0.0736614
56.1413
56.1388
56.1477
56.1659
56.1931
56.2301
56.2808
56.3368
56.4261
56.4831
56.6088
56.6521
56.7184
-1.37557
-1.27562
-1.36698
-1.1203
-1.09984
-0.936045
-0.803913
-0.662276
-0.51698
-0.369835
-0.222221
-0.074208
56.1392
56.1364
56.1448
56.1625
56.1895
56.2264
56.2774
56.3351
56.4253
56.4874
56.6178
56.6658
56.7353
-1.38535
-1.28469
-1.37562
-1.12819
-1.10703
-0.942308
-0.809264
-0.666672
-0.520403
-0.372278
-0.223686
-0.0746959
56.1379
56.1345
56.1424
56.1597
56.1864
56.2233
56.2745
56.3337
56.4249
56.4915
56.6265
56.6787
56.7515
-1.39387
-1.29258
-1.38305
-1.13501
-1.11323
-0.947707
-0.813877
-0.670461
-0.523353
-0.374385
-0.224949
-0.0751166
56.1372
56.1332
56.1405
56.1575
56.1839
56.2207
56.2722
56.3327
56.4248
56.4952
56.6343
56.6904
56.7662
-1.40102
-1.29908
-1.38912
-1.14061
-1.11831
-0.952141
-0.817669
-0.673577
-0.52578
-0.376117
-0.225988
-0.0754626
56.1383
56.1325
56.1391
56.1558
56.182
56.2188
56.2705
56.332
56.4248
56.4981
56.6409
56.7002
56.7786
-1.40667
-1.30423
-1.39376
-1.14495
-1.12221
-0.955542
-0.820578
-0.675967
-0.52764
-0.377446
-0.226785
-0.0757276
56.1382
56.1319
56.1382
56.1547
56.1808
56.2175
56.2693
56.3315
56.4248
56.5003
56.6454
56.7073
56.7878
-1.41075
-1.30764
-1.39688
-1.1479
-1.12485
-0.957837
-0.82255
-0.677586
-0.528901
-0.378346
-0.227325
-0.0759068
56.1437
56.1325
56.1379
56.1543
56.1802
56.217
56.2688
56.3314
56.425
56.5016
56.6483
56.7108
56.7936
-1.41317
-1.31002
-1.39841
-1.14951
-1.12621
-0.958991
-0.823562
-0.678411
-0.529542
-0.378804
-0.227598
-0.0759967
56.2057
56.2022
56.2133
56.235
56.2655
56.3028
56.3501
56.3812
56.4666
56.4539
56.5675
56.5559
56.6004
-1.20289
-1.10928
-1.20539
-0.974979
-0.966013
-0.820066
-0.704585
-0.580605
-0.453308
-0.324309
-0.194883
-0.0650877
56.1989
56.2003
56.2127
56.2344
56.2649
56.3023
56.3497
56.381
56.4662
56.4555
56.5636
56.5553
56.6009
-1.20352
-1.11013
-1.20697
-0.97616
-0.967212
-0.821128
-0.705465
-0.581329
-0.453872
-0.32471
-0.195124
-0.0651687
56.1967
56.1984
56.2111
56.2329
56.2635
56.301
56.3485
56.3803
56.4653
56.4564
56.5624
56.5553
56.602
-1.20588
-1.11314
-1.21003
-0.978803
-0.969669
-0.82325
-0.707259
-0.582797
-0.455011
-0.325521
-0.195609
-0.0653304
56.1929
56.1957
56.2088
56.2308
56.2614
56.299
56.3466
56.3791
56.4638
56.4571
56.561
56.5559
56.6032
-1.21009
-1.11749
-1.21455
-0.98273
-0.973323
-0.8264
-0.709935
-0.584986
-0.456709
-0.32673
-0.196333
-0.0655712
56.1892
56.1928
56.2059
56.228
56.2587
56.2963
56.344
56.3774
56.4619
56.4577
56.5596
56.5567
56.6044
-1.21596
-1.1235
-1.22049
-0.987962
-0.978142
-0.830548
-0.713461
-0.587868
-0.458945
-0.328322
-0.197286
-0.0658881
56.1854
56.1894
56.2026
56.2247
56.2553
56.293
56.3408
56.3753
56.4594
56.4581
56.5583
56.5577
56.6059
-1.22335
-1.13084
-1.22773
-0.994375
-0.984037
-0.835629
-0.717784
-0.591403
-0.461688
-0.330275
-0.198455
-0.0662769
56.1814
56.1856
56.1988
56.2209
56.2514
56.2891
56.337
56.3727
56.4565
56.4582
56.5572
56.559
56.6077
-1.23215
-1.13954
-1.2362
-1.00191
-0.99094
-0.841581
-0.722846
-0.595543
-0.4649
-0.332563
-0.199824
-0.0667323
56.1772
56.1815
56.1946
56.2166
56.247
56.2847
56.3327
56.3696
56.4532
56.4582
56.5564
56.5606
56.6099
-1.24222
-1.14938
-1.24576
-1.01044
-0.998746
-0.848317
-0.728576
-0.60023
-0.468537
-0.335154
-0.201376
-0.0672481
56.1729
56.1772
56.1902
56.2119
56.2422
56.2798
56.3279
56.3662
56.4497
56.458
56.5558
56.5628
56.6127
-1.25339
-1.16024
-1.25627
-1.01984
-1.00734
-0.855739
-0.734892
-0.605398
-0.472548
-0.338012
-0.203086
-0.0678171
56.1685
56.1727
56.1855
56.207
56.237
56.2746
56.3228
56.3625
56.4459
56.458
56.5557
56.5655
56.6164
-1.26549
-1.17195
-1.26758
-1.02997
-1.0166
-0.86374
-0.741702
-0.61097
-0.476875
-0.341094
-0.204932
-0.068431
56.164
56.1681
56.1806
56.2018
56.2316
56.269
56.3174
56.3586
56.442
56.458
56.556
56.5692
56.621
-1.27831
-1.18432
-1.27951
-1.04068
-1.02638
-0.8722
-0.748903
-0.616866
-0.481453
-0.344357
-0.206886
-0.0690809
56.1595
56.1634
56.1756
56.1965
56.2259
56.2633
56.3117
56.3545
56.438
56.4584
56.557
56.5738
56.6268
-1.29167
-1.19716
-1.29188
-1.0518
-1.03654
-0.880988
-0.756388
-0.622995
-0.486213
-0.34775
-0.208918
-0.069757
56.155
56.1587
56.1707
56.1912
56.2202
56.2574
56.306
56.3504
56.4341
56.4591
56.5588
56.5797
56.6341
-1.30534
-1.21026
-1.30449
-1.06316
-1.04691
-0.88997
-0.764041
-0.629263
-0.491084
-0.351222
-0.210998
-0.070449
56.1507
56.1542
56.1658
56.1859
56.2146
56.2516
56.3003
56.3463
56.4304
56.4602
56.5615
56.5872
56.643
-1.31911
-1.22341
-1.31715
-1.07457
-1.05734
-0.899003
-0.771741
-0.635573
-0.495987
-0.354717
-0.213092
-0.071146
56.1465
56.1498
56.161
56.1807
56.209
56.2458
56.2946
56.3424
56.427
56.4618
56.5654
56.5957
56.6537
-1.33275
-1.23641
-1.32965
-1.08585
-1.06765
-0.907943
-0.779364
-0.641822
-0.500844
-0.358182
-0.215168
-0.0718369
56.1426
56.1457
56.1565
56.1757
56.2036
56.2403
56.2892
56.3387
56.4239
56.4638
56.5704
56.6057
56.6661
-1.34606
-1.24903
-1.34179
-1.09683
-1.07768
-0.916644
-0.786788
-0.647909
-0.505578
-0.361558
-0.217191
-0.0725104
56.1391
56.1419
56.1523
56.1711
56.1986
56.235
56.2842
56.3353
56.4212
56.4664
56.5766
56.617
56.6802
-1.35881
-1.2611
-1.35337
-1.10732
-1.08726
-0.924964
-0.793889
-0.653734
-0.510108
-0.36479
-0.219129
-0.0731554
56.1359
56.1385
56.1485
56.1668
56.1939
56.2302
56.2795
56.3323
56.419
56.4693
56.5837
56.6292
56.6956
-1.3708
-1.27239
-1.3642
-1.11715
-1.09624
-0.932765
-0.800549
-0.659199
-0.514359
-0.367823
-0.220947
-0.0737608
56.1333
56.1355
56.1451
56.1629
56.1896
56.2258
56.2753
56.3297
56.4173
56.4725
56.5914
56.6419
56.7117
-1.38184
-1.28276
-1.3741
-1.12616
-1.10446
-0.939915
-0.806654
-0.664211
-0.518259
-0.370606
-0.222615
-0.0743164
56.1312
56.1331
56.1421
56.1595
56.1859
56.2219
56.2716
56.3276
56.416
56.4758
56.5993
56.6548
56.7281
-1.39176
-1.292
-1.3829
-1.13419
-1.11179
-0.946291
-0.812101
-0.668683
-0.52174
-0.373091
-0.224105
-0.0748125
56.1299
56.1312
56.1397
56.1567
56.1827
56.2186
56.2685
56.3258
56.4151
56.479
56.607
56.667
56.7438
-1.4004
-1.30003
-1.39047
-1.14113
-1.1181
-0.951788
-0.816797
-0.672539
-0.524741
-0.375233
-0.22539
-0.0752403
56.1292
56.1298
56.1378
56.1544
56.1801
56.2159
56.266
56.3244
56.4145
56.4819
56.6139
56.6781
56.7581
-1.40763
-1.30664
-1.39665
-1.14684
-1.12327
-0.956303
-0.820657
-0.67571
-0.52721
-0.376996
-0.226447
-0.0755922
56.1303
56.1292
56.1364
56.1527
56.1782
56.2139
56.2641
56.3235
56.4142
56.4842
56.6197
56.6873
56.7701
-1.41337
-1.31188
-1.40138
-1.15126
-1.12725
-0.959766
-0.823618
-0.678142
-0.529103
-0.378347
-0.227257
-0.0758618
56.1302
56.1286
56.1355
56.1516
56.1769
56.2126
56.2628
56.3228
56.414
56.4859
56.6236
56.694
56.7789
-1.4175
-1.31535
-1.40456
-1.15426
-1.12994
-0.962102
-0.825626
-0.67979
-0.530386
-0.379263
-0.227806
-0.0760441
56.1355
56.1292
56.1351
56.1511
56.1764
56.212
56.2623
56.3226
56.4141
56.4868
56.6272
56.6962
56.7841
-1.41995
-1.31776
-1.40611
-1.15589
-1.13132
-0.963273
-0.826654
-0.680629
-0.531038
-0.379728
-0.228084
-0.0761354
56.2006
56.1977
56.2091
56.2308
56.2612
56.2984
56.3456
56.3768
56.4617
56.4502
56.5624
56.5518
56.5974
-1.21153
-1.11834
-1.21318
-0.981254
-0.97026
-0.823492
-0.706543
-0.581641
-0.453703
-0.324326
-0.194755
-0.064993
56.1941
56.1958
56.2084
56.2301
56.2606
56.2978
56.3451
56.3766
56.4613
56.452
56.5578
56.5511
56.598
-1.21219
-1.11924
-1.21481
-0.982479
-0.971495
-0.824585
-0.707447
-0.582385
-0.45428
-0.324737
-0.195001
-0.0650756
56.1916
56.194
56.2069
56.2287
56.2592
56.2965
56.3438
56.3758
56.4602
56.4528
56.5567
56.5511
56.5991
-1.21462
-1.12235
-1.21798
-0.98521
-0.974028
-0.826769
-0.709292
-0.583892
-0.455448
-0.325568
-0.195498
-0.0652411
56.1876
56.1914
56.2046
56.2265
56.257
56.2944
56.3418
56.3745
56.4586
56.4533
56.5551
56.5515
56.6003
-1.21898
-1.12686
-1.22266
-0.989269
-0.977795
-0.830012
-0.712043
-0.58614
-0.457191
-0.326808
-0.19624
-0.0654878
56.1839
56.1884
56.2017
56.2237
56.2542
56.2916
56.339
56.3726
56.4563
56.4535
56.5534
56.552
56.6013
-1.22504
-1.13309
-1.2288
-0.994677
-0.982765
-0.834284
-0.715668
-0.5891
-0.459485
-0.32844
-0.197216
-0.0658124
56.1801
56.1849
56.1983
56.2204
56.2508
56.2882
56.3356
56.3702
56.4536
56.4534
56.5518
56.5526
56.6025
-1.23268
-1.14071
-1.2363
-1.00131
-0.988847
-0.83952
-0.720115
-0.592732
-0.4623
-0.330444
-0.198415
-0.0662109
56.1761
56.1811
56.1945
56.2164
56.2468
56.2841
56.3316
56.3672
56.4503
56.4531
56.55
56.5533
56.6038
-1.24177
-1.14973
-1.24507
-1.00909
-0.995971
-0.845654
-0.725325
-0.596987
-0.465599
-0.332792
-0.19982
-0.0666779
56.1719
56.177
56.1903
56.2121
56.2422
56.2795
56.3271
56.3638
56.4465
56.4524
56.5483
56.5542
56.6054
-1.25218
-1.15993
-1.25497
-1.01791
-1.00403
-0.852599
-0.731225
-0.601808
-0.469337
-0.335452
-0.201412
-0.0672071
56.1676
56.1726
56.1858
56.2073
56.2372
56.2744
56.322
56.3599
56.4424
56.4515
56.5467
56.5554
56.6075
-1.26372
-1.1712
-1.26586
-1.02764
-1.01291
-0.860256
-0.737731
-0.607125
-0.47346
-0.338388
-0.203169
-0.0677912
56.1631
56.168
56.181
56.2023
56.2319
56.2689
56.3164
56.3556
56.4379
56.4505
56.5452
56.557
56.6101
-1.27622
-1.18334
-1.27758
-1.03813
-1.02247
-0.868513
-0.744749
-0.612862
-0.47791
-0.341557
-0.205066
-0.0684219
56.1586
56.1633
56.176
56.197
56.2262
56.2631
56.3106
56.3511
56.4331
56.4494
56.5439
56.5593
56.6134
-1.28947
-1.19617
-1.28995
-1.04921
-1.03259
-0.877247
-0.752176
-0.618936
-0.482622
-0.344913
-0.207074
-0.0690899
56.154
56.1586
56.171
56.1915
56.2204
56.257
56.3044
56.3462
56.4282
56.4483
56.5431
56.5624
56.6176
-1.30327
-1.20949
-1.30277
-1.06072
-1.04309
-0.886327
-0.759899
-0.625254
-0.487526
-0.348405
-0.209166
-0.0697854
56.1495
56.1539
56.1659
56.1861
56.2145
56.2508
56.2982
56.3413
56.4233
56.4474
56.5428
56.5665
56.6231
-1.31739
-1.22308
-1.31586
-1.07248
-1.05383
-0.89561
-0.7678
-0.631719
-0.492545
-0.351981
-0.211307
-0.0704977
56.1451
56.1493
56.161
56.1806
56.2086
56.2446
56.2918
56.3363
56.4184
56.4467
56.5432
56.5715
56.6299
-1.33162
-1.23672
-1.32899
-1.08431
-1.06462
-0.904951
-0.775754
-0.63823
-0.497601
-0.355584
-0.213464
-0.0712156
56.1409
56.1449
56.1561
56.1753
56.2028
56.2384
56.2856
56.3314
56.4137
56.4463
56.5446
56.5775
56.6382
-1.34571
-1.2502
-1.34196
-1.096
-1.0753
-0.914199
-0.783633
-0.644683
-0.502613
-0.359156
-0.215604
-0.0719277
56.137
56.1407
56.1515
56.1702
56.1972
56.2325
56.2796
56.3268
56.4093
56.4462
56.5469
56.5847
56.648
-1.35946
-1.26331
-1.35455
-1.10738
-1.08569
-0.923205
-0.791309
-0.650973
-0.5075
-0.362639
-0.217691
-0.0726223
56.1334
56.1368
56.1472
56.1654
56.1918
56.2268
56.2739
56.3224
56.4053
56.4466
56.5503
56.5929
56.6593
-1.37263
-1.27582
-1.36657
-1.11825
-1.09562
-0.93182
-0.798655
-0.656994
-0.512179
-0.365976
-0.21969
-0.0732877
56.1302
56.1334
56.1433
56.1609
56.1869
56.2216
56.2686
56.3184
56.4017
56.4474
56.5546
56.6021
56.6719
-1.38501
-1.28754
-1.37781
-1.12844
-1.10492
-0.939899
-0.805548
-0.662645
-0.516572
-0.369109
-0.221568
-0.0739128
56.1275
56.1304
56.1398
56.1569
56.1824
56.2168
56.2637
56.3148
56.3987
56.4485
56.5595
56.6119
56.6852
-1.39641
-1.29829
-1.38808
-1.13778
-1.11345
-0.947306
-0.811869
-0.66783
-0.520604
-0.371985
-0.223292
-0.0744867
56.1255
56.1279
56.1368
56.1534
56.1785
56.2126
56.2595
56.3117
56.3962
56.4498
56.5649
56.6219
56.6988
-1.40664
-1.30787
-1.39722
-1.14611
-1.12104
-0.953914
-0.81751
-0.672459
-0.524204
-0.374553
-0.224831
-0.0749994
56.1241
56.126
56.1343
56.1505
56.1751
56.209
56.2559
56.3092
56.3942
56.4512
56.5702
56.6315
56.712
-1.41555
-1.31619
-1.40507
-1.15331
-1.12759
-0.959611
-0.822374
-0.67645
-0.52731
-0.376769
-0.226159
-0.0754417
56.1234
56.1246
56.1324
56.1481
56.1724
56.2061
56.253
56.3071
56.3927
56.4525
56.5751
56.6401
56.7239
-1.42302
-1.32305
-1.4115
-1.15923
-1.13296
-0.964292
-0.826374
-0.679734
-0.529865
-0.378592
-0.227252
-0.0758056
56.1244
56.1239
56.131
56.1463
56.1704
56.2039
56.2508
56.3056
56.3917
56.4536
56.5792
56.6473
56.7339
-1.42893
-1.32848
-1.41641
-1.16381
-1.13709
-0.967882
-0.829442
-0.682253
-0.531824
-0.379991
-0.228091
-0.0760845
56.1243
56.1233
56.13
56.1452
56.169
56.2024
56.2493
56.3046
56.391
56.4544
56.5819
56.6527
56.7412
-1.43319
-1.33207
-1.4197
-1.16691
-1.13987
-0.970305
-0.831522
-0.683959
-0.533152
-0.380938
-0.228658
-0.0762732
56.1296
56.1239
56.1297
56.1447
56.1684
56.2017
56.2487
56.3042
56.3908
56.4549
56.5844
56.6558
56.7453
-1.43571
-1.33455
-1.42132
-1.1686
-1.14131
-0.971519
-0.832588
-0.684828
-0.533827
-0.381419
-0.228946
-0.0763678
56.1931
56.1913
56.2029
56.2246
56.2547
56.2917
56.3386
56.3701
56.4543
56.4443
56.5545
56.5459
56.5921
-1.22556
-1.13169
-1.22463
-0.990558
-0.976456
-0.828441
-0.709317
-0.58304
-0.454158
-0.324246
-0.194488
-0.0648219
56.1865
56.1894
56.2021
56.2239
56.2541
56.2911
56.338
56.3698
56.4538
56.4461
56.5495
56.5451
56.5928
-1.2263
-1.13267
-1.22634
-0.99185
-0.977747
-0.829581
-0.710258
-0.583812
-0.454757
-0.324671
-0.194743
-0.0649071
56.1839
56.1876
56.2006
56.2224
56.2526
56.2897
56.3367
56.3689
56.4526
56.4467
56.5482
56.5449
56.5939
-1.22887
-1.13596
-1.22967
-0.994715
-0.980395
-0.831858
-0.712178
-0.585378
-0.455968
-0.325532
-0.195257
-0.0650781
56.18
56.1849
56.1983
56.2202
56.2504
56.2875
56.3345
56.3673
56.4506
56.4469
56.5461
56.545
56.5948
-1.23346
-1.14073
-1.23459
-0.998974
-0.984332
-0.835242
-0.715042
-0.587713
-0.457776
-0.326817
-0.196025
-0.0653334
56.1763
56.1818
56.1954
56.2173
56.2475
56.2846
56.3315
56.3652
56.448
56.4466
56.544
56.545
56.5955
-1.23984
-1.14729
-1.24105
-1.00465
-0.989529
-0.839701
-0.718818
-0.59079
-0.460157
-0.328509
-0.197037
-0.0656696
56.1724
56.1783
56.192
56.2138
56.2439
56.2809
56.3279
56.3624
56.4448
56.446
56.5416
56.545
56.596
-1.24788
-1.15532
-1.24893
-1.0116
-0.995893
-0.845169
-0.723451
-0.594568
-0.463082
-0.330588
-0.19828
-0.0660826
56.1684
56.1744
56.1881
56.2098
56.2397
56.2766
56.3235
56.3589
56.4409
56.4448
56.5389
56.5448
56.5966
-1.25744
-1.16483
-1.25816
-1.01978
-1.00335
-0.851578
-0.728883
-0.598998
-0.466511
-0.333027
-0.199738
-0.066567
56.1642
56.1702
56.1838
56.2053
56.235
56.2717
56.3185
56.3549
56.4364
56.4432
56.536
56.5447
56.5971
-1.26839
-1.17559
-1.26858
-1.02904
-1.01179
-0.858839
-0.735039
-0.604019
-0.470399
-0.335791
-0.201392
-0.0671164
56.1598
56.1658
56.1792
56.2004
56.2298
56.2663
56.3129
56.3503
56.4314
56.441
56.5328
56.5444
56.5976
-1.28053
-1.18747
-1.28005
-1.03926
-1.0211
-0.86685
-0.741832
-0.609562
-0.474692
-0.338845
-0.203218
-0.0677233
56.1553
56.1612
56.1743
56.1952
56.2242
56.2604
56.3068
56.3452
56.4258
56.4385
56.5293
56.5443
56.5983
-1.29367
-1.20027
-1.2924
-1.05028
-1.03113
-0.875496
-0.749167
-0.615548
-0.479329
-0.342144
-0.205191
-0.0683791
56.1507
56.1564
56.1692
56.1897
56.2183
56.2541
56.3003
56.3396
56.4198
56.4356
56.5256
56.5444
56.5993
-1.30761
-1.21381
-1.30544
-1.06193
-1.04175
-0.884648
-0.756934
-0.621891
-0.484244
-0.34564
-0.207283
-0.0690746
56.1461
56.1516
56.1641
56.1841
56.2121
56.2476
56.2934
56.3337
56.4134
56.4323
56.5218
56.5448
56.6006
-1.32213
-1.22786
-1.31896
-1.07405
-1.05278
-0.894168
-0.765019
-0.628494
-0.489363
-0.349283
-0.209463
-0.0697993
56.1416
56.1468
56.1589
56.1784
56.2059
56.2408
56.2864
56.3275
56.4068
56.4288
56.5182
56.5454
56.6026
-1.33699
-1.2422
-1.33276
-1.08642
-1.06407
-0.90391
-0.773296
-0.635258
-0.494607
-0.353016
-0.211697
-0.0705423
56.1371
56.1421
56.1538
56.1728
56.1996
56.2341
56.2792
56.3212
56.4001
56.4252
56.5148
56.5465
56.6053
-1.35195
-1.25659
-1.34662
-1.09887
-1.07542
-0.913719
-0.781636
-0.642076
-0.499895
-0.356781
-0.213951
-0.0712918
56.1329
56.1376
56.1488
56.1673
56.1935
56.2273
56.272
56.3148
56.3934
56.4216
56.5121
56.5482
56.609
-1.36678
-1.27082
-1.36031
-1.11119
-1.08665
-0.923438
-0.789904
-0.648839
-0.505142
-0.360517
-0.216188
-0.072036
56.1289
56.1334
56.1441
56.1619
56.1875
56.2208
56.265
56.3086
56.3869
56.4182
56.51
56.5506
56.6138
-1.38123
-1.28464
-1.3736
-1.12318
-1.0976
-0.932907
-0.797964
-0.655435
-0.510261
-0.364163
-0.218371
-0.0727625
56.1252
56.1294
56.1397
56.1569
56.1818
56.2146
56.2584
56.3027
56.3808
56.4151
56.5088
56.5539
56.6197
-1.39508
-1.29785
-1.38629
-1.13464
-1.10806
-0.94197
-0.805684
-0.661754
-0.515168
-0.367659
-0.220465
-0.0734592
56.122
56.1259
56.1357
56.1523
56.1765
56.2087
56.2521
56.2971
56.3752
56.4124
56.5084
56.558
56.6267
-1.40809
-1.31021
-1.39815
-1.14538
-1.11786
-0.950475
-0.812931
-0.66769
-0.519777
-0.370944
-0.222432
-0.0741141
56.1193
56.1229
56.1321
56.1481
56.1717
56.2034
56.2464
56.2921
56.3701
56.4101
56.5088
56.5627
56.6345
-1.42007
-1.32154
-1.40901
-1.15523
-1.12685
-0.958275
-0.819581
-0.673139
-0.52401
-0.373961
-0.22424
-0.0747159
56.1171
56.1203
56.129
56.1444
56.1675
56.1987
56.2414
56.2876
56.3657
56.4082
56.5097
56.5677
56.6426
-1.43082
-1.33165
-1.41865
-1.16401
-1.13486
-0.965236
-0.825518
-0.678005
-0.527792
-0.376657
-0.225856
-0.0752538
56.1157
56.1183
56.1264
56.1413
56.1639
56.1946
56.237
56.2838
56.362
56.4067
56.511
56.5726
56.6505
-1.44018
-1.34041
-1.42695
-1.17161
-1.14177
-0.97124
-0.830639
-0.682204
-0.531056
-0.378984
-0.22725
-0.0757181
56.115
56.1169
56.1244
56.1388
56.1609
56.1913
56.2335
56.2808
56.359
56.4055
56.5122
56.577
56.6576
-1.44801
-1.34763
-1.43373
-1.17785
-1.14743
-0.976172
-0.834852
-0.68566
-0.533742
-0.3809
-0.228398
-0.0761003
56.1159
56.1162
56.1229
56.1369
56.1587
56.1888
56.2308
56.2784
56.3568
56.4046
56.5133
56.5805
56.6635
-1.45421
-1.35334
-1.43891
-1.18267
-1.15179
-0.979958
-0.838085
-0.688311
-0.535803
-0.382369
-0.229279
-0.0763935
56.1158
56.1156
56.1219
56.1357
56.1572
56.1871
56.229
56.2768
56.3553
56.4041
56.5138
56.5831
56.6676
-1.45867
-1.35712
-1.44239
-1.18594
-1.15473
-0.982513
-0.840276
-0.690108
-0.5372
-0.383366
-0.229876
-0.076592
56.1211
56.1162
56.1215
56.1352
56.1566
56.1864
56.2282
56.2761
56.3546
56.404
56.5144
56.5845
56.6697
-1.4613
-1.3597
-1.4441
-1.18771
-1.15625
-0.983793
-0.841397
-0.691022
-0.53791
-0.383872
-0.230179
-0.0766918
56.1844
56.1831
56.1949
56.2163
56.2462
56.2828
56.3293
56.361
56.4445
56.4361
56.5442
56.5378
56.5845
-1.24485
-1.14965
-1.23981
-1.00288
-0.98453
-0.834813
-0.712811
-0.584704
-0.45459
-0.324002
-0.194045
-0.0645608
56.1778
56.1814
56.194
56.2156
56.2455
56.2822
56.3287
56.3607
56.4438
56.4379
56.5389
56.5369
56.5852
-1.2457
-1.15075
-1.24162
-1.00426
-0.985895
-0.836015
-0.713802
-0.585514
-0.455217
-0.324446
-0.194309
-0.0646492
56.1752
56.1795
56.1925
56.2141
56.244
56.2806
56.3272
56.3596
56.4423
56.4382
56.5374
56.5364
56.5861
-1.24844
-1.15426
-1.24516
-1.00731
-0.988696
-0.838418
-0.715822
-0.587157
-0.456486
-0.325347
-0.194847
-0.0648276
56.1712
56.1767
56.1902
56.2118
56.2417
56.2783
56.3248
56.3578
56.4401
56.4379
56.5348
56.5361
56.5866
-1.25335
-1.15938
-1.2504
-1.01184
-0.992864
-0.841991
-0.718837
-0.58961
-0.458381
-0.326691
-0.19565
-0.0650942
56.1675
56.1736
56.1872
56.2088
56.2386
56.2751
56.3216
56.3552
56.437
56.4371
56.532
56.5355
56.5868
-1.26018
-1.16641
-1.25729
-1.01787
-0.998367
-0.846701
-0.722812
-0.592843
-0.460879
-0.328465
-0.196709
-0.0654457
56.1636
56.17
56.1837
56.2053
56.2348
56.2713
56.3175
56.3519
56.4331
56.4356
56.5286
56.5345
56.5865
-1.26877
-1.175
-1.2657
-1.02527
-1.00511
-0.852479
-0.727696
-0.596816
-0.463948
-0.330644
-0.198011
-0.065878
56.1596
56.166
56.1798
56.2011
56.2304
56.2666
56.3127
56.3479
56.4284
56.4334
56.5247
56.5332
56.5858
-1.279
-1.18518
-1.27556
-1.03396
-1.01302
-0.859259
-0.733425
-0.601478
-0.467551
-0.333202
-0.199539
-0.0663855
56.1553
56.1618
56.1754
56.1964
56.2255
56.2614
56.3072
56.3431
56.423
56.4304
56.5201
56.5314
56.5847
-1.29069
-1.19669
-1.28669
-1.04382
-1.02198
-0.866945
-0.739924
-0.606768
-0.47164
-0.336106
-0.201275
-0.0669618
56.1509
56.1573
56.1706
56.1914
56.22
56.2555
56.301
56.3375
56.4167
56.4266
56.5146
56.5291
56.5831
-1.30367
-1.2094
-1.29895
-1.05471
-1.03186
-0.875433
-0.747104
-0.612614
-0.47616
-0.339317
-0.203194
-0.0675991
56.1463
56.1525
56.1656
56.1859
56.214
56.2491
56.2941
56.3313
56.4097
56.422
56.5084
56.5264
56.581
-1.31772
-1.22312
-1.31215
-1.06645
-1.04253
-0.884603
-0.754864
-0.618934
-0.481049
-0.34279
-0.20527
-0.0682888
56.1417
56.1477
56.1604
56.1803
56.2078
56.2423
56.2867
56.3244
56.4019
56.4165
56.5012
56.5232
56.5782
-1.33262
-1.23761
-1.3261
-1.07889
-1.05382
-0.89432
-0.763091
-0.625639
-0.486235
-0.346476
-0.207473
-0.069021
56.137
56.1428
56.1551
56.1744
56.2013
56.2351
56.2789
56.317
56.3936
56.4101
56.4932
56.5192
56.575
-1.34814
-1.25266
-1.34058
-1.09181
-1.06558
-0.904437
-0.771664
-0.632628
-0.491644
-0.350321
-0.209772
-0.069785
56.1324
56.1379
56.1498
56.1685
56.1946
56.2277
56.2707
56.3091
56.3847
56.4029
56.4846
56.5144
56.5712
-1.36402
-1.26802
-1.35536
-1.10503
-1.0776
-0.914801
-0.78045
-0.639795
-0.497193
-0.354266
-0.212132
-0.0705692
56.1279
56.1331
56.1445
56.1625
56.1879
56.2202
56.2624
56.3009
56.3755
56.3951
56.4757
56.5092
56.5671
-1.38001
-1.28345
-1.3702
-1.11834
-1.08971
-0.925245
-0.789313
-0.647028
-0.502794
-0.358249
-0.214514
-0.0713614
56.1235
56.1285
56.1394
56.1567
56.1813
56.2127
56.254
56.2926
56.3661
56.3869
56.4667
56.5036
56.5631
-1.39586
-1.29869
-1.38487
-1.13151
-1.10171
-0.935604
-0.798109
-0.65421
-0.508358
-0.362207
-0.216882
-0.0721489
56.1195
56.1242
56.1345
56.1511
56.1748
56.2054
56.2457
56.2843
56.3567
56.3786
56.4581
56.4983
56.5594
-1.4113
-1.3135
-1.39912
-1.14433
-1.1134
-0.945705
-0.806692
-0.661223
-0.513793
-0.366074
-0.219197
-0.0729186
56.1158
56.1202
56.1299
56.1458
56.1687
56.1984
56.2378
56.2763
56.3476
56.3705
56.4499
56.4933
56.5562
-1.42609
-1.32764
-1.41273
-1.15659
-1.12459
-0.95538
-0.81492
-0.667948
-0.519008
-0.369785
-0.221418
-0.0736576
56.1125
56.1166
56.1257
56.1409
56.1629
56.1918
56.2303
56.2686
56.339
56.3627
56.4425
56.4889
56.5537
-1.43999
-1.34088
-1.42545
-1.16808
-1.13508
-0.964463
-0.82265
-0.67427
-0.523911
-0.373275
-0.223508
-0.074353
56.1097
56.1134
56.122
56.1365
56.1577
56.1858
56.2234
56.2616
56.331
56.3555
56.436
56.485
56.5518
-1.45277
-1.35302
-1.43709
-1.17863
-1.1447
-0.972801
-0.829748
-0.680078
-0.528418
-0.376484
-0.225429
-0.0749925
56.1075
56.1108
56.1188
56.1326
56.1531
56.1804
56.2172
56.2552
56.3238
56.349
56.4303
56.4815
56.5503
-1.46424
-1.36383
-1.44743
-1.18803
-1.15328
-0.980244
-0.83609
-0.68527
-0.532447
-0.379354
-0.227148
-0.0755646
56.106
56.1088
56.1161
56.1293
56.1491
56.1757
56.2119
56.2498
56.3176
56.3433
56.4252
56.4783
56.5489
-1.47422
-1.37321
-1.45633
-1.19616
-1.16068
-0.986666
-0.841562
-0.689752
-0.535926
-0.381833
-0.228633
-0.0760588
56.1052
56.1073
56.114
56.1266
56.1459
56.1719
56.2075
56.2452
56.3123
56.3386
56.4208
56.4752
56.5472
-1.48256
-1.38092
-1.4636
-1.20283
-1.16675
-0.991944
-0.846066
-0.693442
-0.538792
-0.383875
-0.229856
-0.0764661
56.1062
56.1066
56.1124
56.1247
56.1435
56.169
56.2042
56.2418
56.3083
56.3349
56.4173
56.4722
56.5453
-1.48915
-1.387
-1.46916
-1.208
-1.17141
-0.995995
-0.849523
-0.696273
-0.540991
-0.385442
-0.230795
-0.0767786
56.106
56.1059
56.1114
56.1233
56.1418
56.1671
56.2019
56.2394
56.3054
56.3323
56.4143
56.4695
56.5431
-1.49389
-1.39104
-1.47289
-1.2115
-1.17456
-0.99873
-0.851866
-0.698193
-0.542482
-0.386504
-0.231432
-0.0769904
56.1113
56.1066
56.111
56.1228
56.1411
56.1662
56.2009
56.2383
56.304
56.3314
56.413
56.4656
56.541
-1.49667
-1.39375
-1.47473
-1.21338
-1.17619
-1.0001
-0.853064
-0.69917
-0.54324
-0.387045
-0.231756
-0.0770973
56.1744
56.1734
56.185
56.2062
56.2356
56.2717
56.3177
56.3497
56.4321
56.4261
56.5312
56.5274
56.5746
-1.26951
-1.17228
-1.25868
-1.01819
-0.994378
-0.842467
-0.716894
-0.586505
-0.454888
-0.323511
-0.19337
-0.0641914
56.1678
56.1716
56.1842
56.2054
56.2349
56.271
56.317
56.3493
56.4313
56.4274
56.526
56.5265
56.5753
-1.27044
-1.17352
-1.26063
-1.01968
-0.995836
-0.843748
-0.717946
-0.587362
-0.455549
-0.323978
-0.193648
-0.0642837
56.1651
56.1697
56.1826
56.2038
56.2332
56.2694
56.3153
56.348
56.4296
56.4273
56.5242
56.5257
56.5759
-1.27342
-1.17733
-1.26445
-1.02295
-0.99883
-0.846308
-0.720091
-0.589101
-0.456889
-0.324928
-0.194213
-0.0644712
56.1612
56.1669
56.1802
56.2015
56.2308
56.2669
56.3127
56.3458
56.4269
56.4265
56.5211
56.5248
56.576
-1.27877
-1.1829
-1.2701
-1.02783
-1.00329
-0.850117
-0.723294
-0.5917
-0.458892
-0.326347
-0.19506
-0.0647518
56.1574
56.1637
56.1772
56.1984
56.2276
56.2635
56.3092
56.3428
56.4233
56.4249
56.5173
56.5234
56.5754
-1.28618
-1.19051
-1.27754
-1.03431
-1.00918
-0.855142
-0.72752
-0.595127
-0.461535
-0.328219
-0.196177
-0.0651224
56.1535
56.16
56.1736
56.1947
56.2236
56.2593
56.3047
56.3389
56.4186
56.4225
56.5128
56.5213
56.574
-1.29549
-1.19983
-1.28663
-1.04227
-1.0164
-0.861312
-0.732717
-0.599343
-0.464785
-0.330524
-0.197552
-0.0655786
56.1494
56.156
56.1695
56.1904
56.219
56.2543
56.2993
56.3341
56.413
56.4189
56.5072
56.5184
56.5717
-1.30658
-1.21086
-1.29728
-1.05163
-1.02487
-0.868557
-0.73882
-0.604296
-0.468605
-0.333232
-0.199169
-0.0661149
56.1451
56.1516
56.165
56.1855
56.2137
56.2486
56.2932
56.3283
56.4063
56.4143
56.5004
56.5146
56.5685
-1.31926
-1.22334
-1.30932
-1.06225
-1.03449
-0.876781
-0.74575
-0.609923
-0.472946
-0.33631
-0.201006
-0.0667247
56.1406
56.147
56.1601
56.1802
56.2079
56.2422
56.2861
56.3216
56.3985
56.4083
56.4921
56.5096
56.5639
-1.33333
-1.23713
-1.32259
-1.07399
-1.04511