/*--------------------------------*- C++ -*----------------------------------*\
| =========                 |                                                 |
| \\      /  F ield         | OpenFOAM: The Open Source CFD Toolbox           |
|  \\    /   O peration     | Version:  2306                                  |
|   \\  /    A nd           | Website:  www.openfoam.com                      |
|    \\/     M anipulation  |                                                 |
\*---------------------------------------------------------------------------*/
FoamFile
{
    version     2.0;
    format      ascii;
    arch        "LSB;label=32;scalar=64";
    class       volScalarField;
    location    "2.5";
    object      p;
}
// * * * * * * * * * * * * * * * * * * * * * * * * * * * * * * * * * * * * * //

dimensions      [0 2 -2 0 0 0 0];

internalField   nonuniform List<scalar> 
288632
(
50.5171
50.5084
50.5176
50.5377
50.5662
50.6018
50.6464
50.6753
50.7717
50.7279
50.8794
50.837
50.8916
-0.706349
-0.619751
-0.781904
-0.557608
-0.596616
-0.500291
-0.42816
-0.352671
-0.275231
-0.196816
-0.11837
-0.0396025
50.5104
50.5067
50.5167
50.5369
50.5655
50.6011
50.6458
50.6749
50.7712
50.7278
50.8786
50.8361
50.8916
-0.706835
-0.620382
-0.783351
-0.558632
-0.597683
-0.501233
-0.428943
-0.353313
-0.275729
-0.19717
-0.118583
-0.039674
50.5076
50.5046
50.515
50.5353
50.5639
50.5995
50.6442
50.6738
50.7697
50.7281
50.8772
50.8354
50.8918
-0.708875
-0.623058
-0.786083
-0.560993
-0.599861
-0.503118
-0.430533
-0.354609
-0.276733
-0.197883
-0.119009
-0.0398159
50.5036
50.5016
50.5124
50.5328
50.5614
50.597
50.6418
50.6721
50.7674
50.7282
50.8747
50.8351
50.892
-0.712594
-0.626823
-0.790116
-0.564468
-0.603098
-0.505913
-0.4329
-0.356541
-0.278228
-0.198946
-0.119644
-0.0400269
50.4996
50.4982
50.5092
50.5296
50.5582
50.5938
50.6386
50.6697
50.7643
50.7281
50.8717
50.8346
50.892
-0.717809
-0.632205
-0.795408
-0.569134
-0.607366
-0.509595
-0.436017
-0.359082
-0.280195
-0.200343
-0.120479
-0.0403042
50.4953
50.4943
50.5054
50.5257
50.5542
50.5898
50.6346
50.6667
50.7604
50.7275
50.8685
50.8341
50.8919
-0.724418
-0.638721
-0.801864
-0.574846
-0.612587
-0.514107
-0.439839
-0.362199
-0.282607
-0.202057
-0.121503
-0.0406441
50.4909
50.4899
50.501
50.5213
50.5496
50.585
50.6299
50.6632
50.7558
50.7267
50.8649
50.8336
50.8918
-0.732322
-0.64651
-0.809421
-0.58157
-0.618702
-0.519393
-0.444315
-0.365849
-0.285432
-0.204065
-0.122702
-0.0410422
50.4861
50.4852
50.4962
50.5163
50.5444
50.5797
50.6246
50.6591
50.7506
50.726
50.8609
50.8333
50.892
-0.741391
-0.65532
-0.817952
-0.589189
-0.62562
-0.525378
-0.449382
-0.369981
-0.28863
-0.206337
-0.12406
-0.0414928
50.4812
50.4802
50.491
50.5108
50.5387
50.5738
50.6187
50.6545
50.7449
50.7248
50.8574
50.8333
50.8925
-0.751475
-0.665077
-0.827349
-0.5976
-0.633244
-0.531977
-0.454968
-0.374537
-0.292155
-0.208842
-0.125557
-0.0419896
50.476
50.4749
50.4855
50.505
50.5325
50.5675
50.6123
50.6495
50.7389
50.7227
50.855
50.8338
50.8936
-0.762418
-0.675613
-0.837471
-0.606677
-0.641462
-0.539093
-0.460993
-0.37945
-0.295958
-0.211544
-0.127172
-0.0425254
50.4708
50.4695
50.4798
50.499
50.5261
50.5608
50.6056
50.6442
50.7326
50.7208
50.853
50.8349
50.8957
-0.774049
-0.686772
-0.848169
-0.616283
-0.650153
-0.546622
-0.467367
-0.384648
-0.299981
-0.214403
-0.12888
-0.0430925
50.4655
50.464
50.474
50.4927
50.5195
50.5539
50.5986
50.6387
50.7262
50.7193
50.8515
50.837
50.8989
-0.786189
-0.698377
-0.859279
-0.626272
-0.659186
-0.554449
-0.473995
-0.390054
-0.304165
-0.217377
-0.130657
-0.0436822
50.4602
50.4586
50.4681
50.4864
50.5127
50.5469
50.5916
50.6332
50.7198
50.7183
50.8509
50.8403
50.9036
-0.798651
-0.710249
-0.87063
-0.636489
-0.668423
-0.562455
-0.480774
-0.395584
-0.308445
-0.220419
-0.132474
-0.0442855
50.4551
50.4532
50.4624
50.4802
50.506
50.5399
50.5845
50.6277
50.7136
50.7178
50.8514
50.8452
50.91
-0.811236
-0.722197
-0.882044
-0.646772
-0.677717
-0.570512
-0.487598
-0.40115
-0.312754
-0.223481
-0.134305
-0.0448931
50.4501
50.448
50.4568
50.474
50.4993
50.533
50.5776
50.6225
50.7078
50.718
50.8531
50.8518
50.9183
-0.82375
-0.734035
-0.893336
-0.656959
-0.686921
-0.578493
-0.494358
-0.406666
-0.317024
-0.226516
-0.136118
-0.0454951
50.4455
50.4431
50.4514
50.4681
50.4929
50.5263
50.571
50.6175
50.7024
50.7188
50.8562
50.86
50.9287
-0.835983
-0.745568
-0.904324
-0.666882
-0.695884
-0.586268
-0.500945
-0.41204
-0.321185
-0.229474
-0.137886
-0.0460819
50.4412
50.4386
50.4464
50.4626
50.4869
50.5199
50.5648
50.613
50.6977
50.7203
50.8605
50.8698
50.9409
-0.847744
-0.756613
-0.914827
-0.676382
-0.704459
-0.593709
-0.507249
-0.417185
-0.325168
-0.232305
-0.139578
-0.0466436
50.4374
50.4344
50.4418
50.4575
50.4813
50.514
50.559
50.6088
50.6936
50.7224
50.8661
50.8812
50.9547
-0.858834
-0.766981
-0.924667
-0.685298
-0.712501
-0.600691
-0.513165
-0.422013
-0.328907
-0.234962
-0.141166
-0.0471709
50.4341
50.4308
50.4377
50.4528
50.4762
50.5087
50.5538
50.6052
50.6902
50.725
50.8727
50.8932
50.9696
-0.869078
-0.776529
-0.933682
-0.693487
-0.719875
-0.607097
-0.518593
-0.426442
-0.332337
-0.2374
-0.142623
-0.0476547
50.4315
50.4278
50.4341
50.4488
50.4716
50.504
50.5493
50.6022
50.6875
50.7278
50.8798
50.9054
50.985
-0.878307
-0.785064
-0.941704
-0.700799
-0.726449
-0.612814
-0.523438
-0.430397
-0.335399
-0.239577
-0.143924
-0.0480866
50.4296
50.4254
50.4312
50.4453
50.4678
50.5
50.5454
50.5997
50.6855
50.7307
50.8869
50.9172
51.0001
-0.886375
-0.792511
-0.948617
-0.707134
-0.732121
-0.617747
-0.527616
-0.433807
-0.33804
-0.241454
-0.145046
-0.048459
50.4286
50.4237
50.4288
50.4426
50.4647
50.4967
50.5423
50.5977
50.684
50.7334
50.8936
50.928
51.0139
-0.89316
-0.798652
-0.954273
-0.712349
-0.736776
-0.621803
-0.531053
-0.436613
-0.340213
-0.242999
-0.14597
-0.0487654
50.429
50.4227
50.4272
50.4405
50.4624
50.4943
50.54
50.5962
50.683
50.7357
50.8994
50.9371
51.0257
-0.898557
-0.803578
-0.958601
-0.716401
-0.740355
-0.624917
-0.533691
-0.438765
-0.341879
-0.244184
-0.146677
-0.049
50.4287
50.422
50.426
50.4391
50.4608
50.4926
50.5384
50.5953
50.6824
50.7374
50.9034
50.9439
51.0346
-0.902481
-0.806823
-0.961504
-0.719148
-0.742776
-0.627019
-0.535479
-0.440224
-0.343009
-0.244987
-0.147157
-0.0491587
50.435
50.4226
50.4256
50.4386
50.4601
50.4919
50.5377
50.595
50.6823
50.7386
50.9063
50.9472
51.0404
-0.904875
-0.809201
-0.962907
-0.720668
-0.744025
-0.628079
-0.536394
-0.440969
-0.343584
-0.245395
-0.1474
-0.0492383
50.5095
50.5057
50.5157
50.5359
50.5644
50.5999
50.6445
50.6735
50.7697
50.7262
50.8769
50.8347
50.8904
-0.708829
-0.622152
-0.784595
-0.559793
-0.597988
-0.501571
-0.428912
-0.353074
-0.27539
-0.19683
-0.118327
-0.0395698
50.503
50.5037
50.515
50.5351
50.5636
50.5992
50.6438
50.6731
50.7691
50.7272
50.8725
50.8338
50.8906
-0.709278
-0.62281
-0.786069
-0.56084
-0.599075
-0.502531
-0.429708
-0.353725
-0.275895
-0.197188
-0.118542
-0.0396421
50.5003
50.5016
50.5132
50.5334
50.562
50.5975
50.6423
50.672
50.7675
50.7278
50.8702
50.8331
50.891
-0.711348
-0.62554
-0.788849
-0.563241
-0.601287
-0.504444
-0.43132
-0.355039
-0.276912
-0.19791
-0.118973
-0.0397857
50.4962
50.4988
50.5105
50.5309
50.5595
50.5951
50.6398
50.6702
50.7651
50.7282
50.8669
50.8326
50.8912
-0.715122
-0.629379
-0.792953
-0.566776
-0.604574
-0.507282
-0.433721
-0.356996
-0.278426
-0.198986
-0.119616
-0.0399992
50.4922
50.4954
50.5073
50.5277
50.5562
50.5917
50.6365
50.6677
50.7618
50.7282
50.8633
50.832
50.8912
-0.720413
-0.634858
-0.798337
-0.57152
-0.608908
-0.511019
-0.436881
-0.359572
-0.280418
-0.200401
-0.120461
-0.0402798
50.4879
50.4915
50.5034
50.5238
50.5522
50.5877
50.6324
50.6646
50.7576
50.7273
50.8599
50.8314
50.891
-0.727117
-0.641494
-0.804906
-0.577329
-0.614211
-0.515599
-0.440758
-0.362731
-0.282862
-0.202137
-0.121498
-0.0406239
50.4834
50.4871
50.499
50.5193
50.5475
50.5829
50.6276
50.6609
50.7528
50.726
50.8562
50.8307
50.8908
-0.735135
-0.649426
-0.812596
-0.584166
-0.620424
-0.520965
-0.445298
-0.366432
-0.285724
-0.20417
-0.122712
-0.0410268
50.4787
50.4824
50.4942
50.5143
50.5423
50.5774
50.6221
50.6565
50.7474
50.7245
50.8524
50.8301
50.8908
-0.744335
-0.658398
-0.82128
-0.591916
-0.627453
-0.527042
-0.45044
-0.370621
-0.288965
-0.206472
-0.124087
-0.0414831
50.4737
50.4773
50.489
50.5088
50.5365
50.5714
50.616
50.6517
50.7414
50.7223
50.8489
50.8297
50.8911
-0.754564
-0.668336
-0.830847
-0.600472
-0.635201
-0.533744
-0.456109
-0.375242
-0.292539
-0.20901
-0.125604
-0.0419863
50.4686
50.472
50.4834
50.5029
50.5303
50.565
50.6094
50.6464
50.735
50.72
50.8458
50.8296
50.8919
-0.765665
-0.679069
-0.841154
-0.609708
-0.643556
-0.540974
-0.462225
-0.380227
-0.296394
-0.211749
-0.12724
-0.0425291
50.4633
50.4666
50.4777
50.4968
50.5237
50.5581
50.6025
50.6407
50.7282
50.7176
50.8429
50.8303
50.8936
-0.777467
-0.690437
-0.852049
-0.619485
-0.652394
-0.548625
-0.468698
-0.385502
-0.300475
-0.214648
-0.128972
-0.0431037
50.458
50.4611
50.4718
50.4905
50.5169
50.5511
50.5952
50.6349
50.7213
50.7155
50.8405
50.8317
50.8964
-0.789787
-0.702262
-0.863367
-0.629653
-0.661582
-0.556581
-0.47543
-0.390989
-0.30472
-0.217663
-0.130773
-0.0437015
50.4527
50.4556
50.4659
50.4841
50.5101
50.5438
50.5879
50.629
50.7143
50.7136
50.839
50.8344
50.9005
-0.802433
-0.71436
-0.874932
-0.640054
-0.670978
-0.564719
-0.482317
-0.396604
-0.309064
-0.220749
-0.132617
-0.0443133
50.4475
50.4502
50.4601
50.4777
50.5032
50.5366
50.5805
50.623
50.7075
50.7122
50.8384
50.8385
50.9062
-0.815208
-0.726539
-0.886563
-0.650526
-0.680436
-0.572913
-0.489252
-0.402258
-0.313439
-0.223857
-0.134473
-0.0449296
50.4426
50.445
50.4544
50.4715
50.4964
50.5295
50.5733
50.6173
50.7011
50.7114
50.8391
50.8442
50.9138
-0.827907
-0.738603
-0.898072
-0.6609
-0.689805
-0.581032
-0.496124
-0.407861
-0.317774
-0.226938
-0.136314
-0.0455404
50.4379
50.4401
50.449
50.4656
50.4899
50.5226
50.5664
50.6118
50.695
50.7112
50.841
50.8515
50.9234
-0.840325
-0.750359
-0.909273
-0.671009
-0.69893
-0.588942
-0.502822
-0.413323
-0.322
-0.22994
-0.138108
-0.0461359
50.4336
50.4355
50.444
50.4599
50.4837
50.516
50.5598
50.6067
50.6896
50.7116
50.8442
50.8604
50.9349
-0.852258
-0.761618
-0.919981
-0.680687
-0.707661
-0.596514
-0.509233
-0.418552
-0.326047
-0.232816
-0.139826
-0.0467062
50.4298
50.4313
50.4393
50.4547
50.478
50.5099
50.5537
50.6021
50.6849
50.7125
50.8487
50.8708
50.948
-0.863515
-0.772188
-0.930014
-0.689772
-0.715852
-0.60362
-0.515251
-0.42346
-0.329846
-0.235515
-0.141439
-0.0472416
50.4265
50.4277
50.4352
50.45
50.4727
50.5044
50.5482
50.598
50.6808
50.714
50.854
50.8818
50.9623
-0.873912
-0.78192
-0.939206
-0.698116
-0.723363
-0.610141
-0.520773
-0.427965
-0.333332
-0.237992
-0.142919
-0.0477329
50.4238
50.4247
50.4316
50.4459
50.4681
50.4995
50.5433
50.5944
50.6776
50.7158
50.86
50.893
50.9771
-0.88328
-0.790619
-0.947388
-0.705568
-0.730061
-0.615962
-0.525703
-0.431986
-0.336445
-0.240204
-0.144241
-0.0481716
50.422
50.4223
50.4286
50.4424
50.4642
50.4953
50.5392
50.5915
50.675
50.7178
50.866
50.904
50.9916
-0.891463
-0.798209
-0.954438
-0.712023
-0.735841
-0.620985
-0.529956
-0.435455
-0.33913
-0.242112
-0.145381
-0.04855
50.421
50.4205
50.4263
50.4396
50.461
50.4919
50.5359
50.5891
50.673
50.7197
50.8718
50.914
51.0049
-0.898348
-0.804466
-0.960206
-0.717338
-0.740584
-0.625114
-0.533454
-0.43831
-0.34134
-0.243683
-0.146319
-0.0488613
50.4213
50.4195
50.4246
50.4375
50.4586
50.4893
50.5334
50.5874
50.6717
50.7213
50.8768
50.9225
51.0162
-0.903823
-0.809479
-0.96462
-0.721465
-0.74423
-0.628285
-0.536139
-0.4405
-0.343035
-0.244887
-0.147039
-0.0490998
50.421
50.4188
50.4234
50.4361
50.457
50.4876
50.5317
50.5863
50.6709
50.7224
50.8804
50.9287
51.0247
-0.907804
-0.812785
-0.967579
-0.724263
-0.746697
-0.630425
-0.537959
-0.441984
-0.344183
-0.245703
-0.147526
-0.0492611
50.4272
50.4195
50.423
50.4355
50.4563
50.4868
50.531
50.5858
50.6706
50.723
50.8842
50.9309
51.0298
-0.910225
-0.815188
-0.969008
-0.725807
-0.747966
-0.631501
-0.538889
-0.44274
-0.344767
-0.246118
-0.147773
-0.0493419
50.5047
50.5016
50.512
50.5321
50.5606
50.5959
50.6404
50.6696
50.7652
50.723
50.8721
50.8308
50.8877
-0.714452
-0.628248
-0.789669
-0.564036
-0.600451
-0.503791
-0.430143
-0.35364
-0.27551
-0.196706
-0.118138
-0.0394632
50.4982
50.4997
50.5111
50.5313
50.5598
50.5952
50.6397
50.6692
50.7645
50.7244
50.8668
50.8299
50.888
-0.714919
-0.628946
-0.791185
-0.565123
-0.60157
-0.504778
-0.43096
-0.354308
-0.276027
-0.197073
-0.118358
-0.039537
50.4954
50.4977
50.5093
50.5296
50.5581
50.5935
50.638
50.668
50.7628
50.7251
50.8641
50.829
50.8885
-0.717062
-0.631774
-0.794058
-0.567602
-0.603849
-0.506747
-0.432616
-0.355656
-0.277069
-0.197812
-0.1188
-0.0396838
50.4913
50.4948
50.5068
50.5271
50.5556
50.5909
50.6355
50.666
50.7602
50.7255
50.8603
50.8283
50.8886
-0.720961
-0.635757
-0.798301
-0.571256
-0.607236
-0.509666
-0.435083
-0.357664
-0.278621
-0.198914
-0.119457
-0.0399022
50.4872
50.4913
50.5035
50.5239
50.5522
50.5875
50.632
50.6634
50.7565
50.7249
50.8565
50.8275
50.8884
-0.72643
-0.641435
-0.80387
-0.576157
-0.611704
-0.513513
-0.438332
-0.360308
-0.280664
-0.200364
-0.120323
-0.0401894
50.483
50.4873
50.4996
50.5199
50.5481
50.5833
50.6277
50.66
50.752
50.7234
50.8528
50.8265
50.8879
-0.733357
-0.648318
-0.810667
-0.582161
-0.617171
-0.51823
-0.442317
-0.363552
-0.28317
-0.202143
-0.121385
-0.0405417
50.4784
50.4829
50.4951
50.5153
50.5433
50.5783
50.6226
50.6559
50.7467
50.7215
50.8485
50.8252
50.8872
-0.741642
-0.65654
-0.818626
-0.589228
-0.623579
-0.523758
-0.446987
-0.367353
-0.286107
-0.204227
-0.122629
-0.0409545
50.4736
50.4781
50.4902
50.5101
50.5379
50.5726
50.6168
50.6511
50.7407
50.719
50.8439
50.8238
50.8865
-0.751148
-0.665846
-0.827618
-0.59724
-0.630833
-0.53002
-0.452277
-0.371659
-0.289434
-0.206588
-0.124039
-0.0414221
50.4686
50.473
50.4849
50.5045
50.5319
50.5664
50.6104
50.6457
50.7341
50.716
50.8392
50.8224
50.8859
-0.761719
-0.676152
-0.837528
-0.60609
-0.638832
-0.53693
-0.458114
-0.37641
-0.293105
-0.209194
-0.125595
-0.041938
50.4634
50.4677
50.4793
50.4985
50.5255
50.5596
50.6034
50.6398
50.7268
50.7127
50.8345
50.8211
50.8856
-0.773194
-0.687288
-0.848209
-0.615647
-0.647461
-0.544387
-0.464414
-0.381538
-0.297068
-0.212007
-0.127274
-0.042495
50.4581
50.4622
50.4735
50.4923
50.5187
50.5525
50.5959
50.6335
50.7191
50.7091
50.8298
50.8202
50.8858
-0.785395
-0.699085
-0.859504
-0.625767
-0.656595
-0.552283
-0.471085
-0.386968
-0.301264
-0.214985
-0.129053
-0.0430848
50.4528
50.4567
50.4675
50.4858
50.5117
50.5451
50.5882
50.6269
50.7111
50.7055
50.8255
50.8199
50.8868
-0.798135
-0.71136
-0.871241
-0.636296
-0.666095
-0.560498
-0.478026
-0.392619
-0.305632
-0.218085
-0.130904
-0.0436988
50.4475
50.4511
50.4615
50.4793
50.5046
50.5375
50.5802
50.62
50.703
50.7019
50.8216
50.8205
50.889
-0.811215
-0.723921
-0.883241
-0.647072
-0.675816
-0.568907
-0.485132
-0.398405
-0.310104
-0.22126
-0.132799
-0.0443276
50.4422
50.4456
50.4556
50.4728
50.4975
50.5298
50.5723
50.6132
50.6949
50.6986
50.8185
50.8225
50.8924
-0.824428
-0.736568
-0.895312
-0.657924
-0.685606
-0.577377
-0.492292
-0.404235
-0.31461
-0.224459
-0.134709
-0.0449613
50.4372
50.4404
50.4499
50.4664
50.4905
50.5222
50.5644
50.6064
50.6871
50.6956
50.8164
50.8257
50.8975
-0.837562
-0.749099
-0.907262
-0.668679
-0.695306
-0.585772
-0.49939
-0.410016
-0.319078
-0.227631
-0.136604
-0.0455899
50.4325
50.4354
50.4444
50.4603
50.4837
50.5149
50.5567
50.5998
50.6796
50.6931
50.8154
50.8303
50.9044
-0.850407
-0.761312
-0.918895
-0.679163
-0.70476
-0.593956
-0.506311
-0.415654
-0.323437
-0.230725
-0.138452
-0.046203
50.4282
50.4307
50.4392
50.4545
50.4772
50.5079
50.5494
50.5936
50.6727
50.6912
50.8157
50.836
50.913
-0.862752
-0.77301
-0.930019
-0.689202
-0.71381
-0.601794
-0.51294
-0.421054
-0.327612
-0.233689
-0.140222
-0.0467904
50.4243
50.4265
50.4345
50.4491
50.4712
50.5014
50.5427
50.5879
50.6665
50.6899
50.8172
50.8433
50.9231
-0.874399
-0.783993
-0.940444
-0.698629
-0.722302
-0.609153
-0.519165
-0.426125
-0.331533
-0.236474
-0.141885
-0.0473421
50.4209
50.4228
50.4302
50.4443
50.4657
50.4954
50.5365
50.5827
50.6611
50.6891
50.8196
50.8511
50.9344
-0.885155
-0.794105
-0.949998
-0.707289
-0.730093
-0.615907
-0.524878
-0.430781
-0.335133
-0.23903
-0.143412
-0.0478488
50.4183
50.4198
50.4266
50.44
50.4609
50.4901
50.531
50.5782
50.6566
50.6888
50.8229
50.8593
50.9462
-0.894844
-0.803144
-0.958502
-0.715023
-0.737043
-0.621939
-0.529981
-0.43494
-0.338349
-0.241314
-0.144776
-0.0483013
50.4164
50.4173
50.4235
50.4364
50.4567
50.4856
50.5264
50.5744
50.6528
50.6889
50.8265
50.8675
50.958
-0.903311
-0.811027
-0.965832
-0.721724
-0.74304
-0.627145
-0.534384
-0.438528
-0.341124
-0.243284
-0.145953
-0.0486918
50.4153
50.4155
50.4211
50.4335
50.4534
50.4819
50.5226
50.5713
50.6499
50.6891
50.8301
50.8752
50.9689
-0.910428
-0.817528
-0.97183
-0.727241
-0.747963
-0.631425
-0.538008
-0.441481
-0.343408
-0.244906
-0.146921
-0.0490132
50.4157
50.4145
50.4194
50.4313
50.4508
50.4792
50.5197
50.569
50.6478
50.6895
50.8334
50.8816
50.9781
-0.916085
-0.822731
-0.976422
-0.731523
-0.751748
-0.634713
-0.540789
-0.443747
-0.34516
-0.24615
-0.147664
-0.0492594
50.4153
50.4138
50.4182
50.4299
50.4492
50.4773
50.5178
50.5674
50.6464
50.6897
50.8358
50.8864
50.985
-0.920199
-0.826168
-0.979501
-0.734428
-0.754309
-0.636932
-0.542673
-0.445283
-0.346348
-0.246994
-0.148168
-0.0494261
50.4215
50.4145
50.4178
50.4292
50.4484
50.4765
50.5169
50.5668
50.6459
50.6899
50.8386
50.8893
50.9888
-0.922702
-0.828649
-0.980993
-0.736024
-0.755627
-0.638048
-0.543636
-0.446066
-0.346952
-0.247423
-0.148423
-0.0495097
50.4979
50.4958
50.5064
50.5265
50.5548
50.5899
50.6342
50.6636
50.7584
50.718
50.8645
50.8255
50.8829
-0.723838
-0.637126
-0.797011
-0.5703
-0.603991
-0.506951
-0.431841
-0.354352
-0.275573
-0.19643
-0.117794
-0.0392795
50.4914
50.494
50.5055
50.5257
50.554
50.5891
50.6334
50.6631
50.7576
50.7196
50.8585
50.8244
50.8833
-0.724379
-0.637896
-0.798596
-0.571447
-0.605159
-0.50798
-0.432691
-0.355045
-0.276109
-0.196809
-0.118021
-0.0393554
50.4885
50.4919
50.5038
50.524
50.5522
50.5874
50.6316
50.6618
50.7557
50.7204
50.8552
50.8233
50.8838
-0.726638
-0.640878
-0.801612
-0.574047
-0.607539
-0.510031
-0.434414
-0.356444
-0.277188
-0.197574
-0.118477
-0.039507
50.4844
50.4889
50.5011
50.5214
50.5496
50.5847
50.6289
50.6597
50.7526
50.7203
50.8512
50.8223
50.8837
-0.730744
-0.645088
-0.806066
-0.577879
-0.611076
-0.513075
-0.43698
-0.35853
-0.278797
-0.198715
-0.119158
-0.0397327
50.4803
50.4854
50.4978
50.5181
50.5461
50.5811
50.6252
50.6567
50.7486
50.7189
50.8472
50.821
50.883
-0.736499
-0.651072
-0.811916
-0.583017
-0.615744
-0.517088
-0.44036
-0.361275
-0.280916
-0.200217
-0.120053
-0.0400297
50.476
50.4813
50.4939
50.514
50.5419
50.5766
50.6206
50.6529
50.7435
50.7167
50.8426
50.8193
50.8819
-0.743782
-0.65833
-0.819059
-0.589315
-0.62146
-0.522008
-0.44451
-0.364647
-0.283517
-0.202061
-0.121153
-0.0403943
50.4715
50.4769
50.4893
50.5093
50.5369
50.5714
50.6151
50.6482
50.7376
50.7139
50.8372
50.8171
50.8803
-0.752492
-0.666996
-0.827427
-0.596731
-0.628163
-0.52778
-0.449374
-0.368599
-0.286566
-0.204222
-0.122443
-0.0408218
50.4666
50.472
50.4843
50.504
50.5313
50.5654
50.6088
50.6428
50.7307
50.7102
50.8314
50.8144
50.8783
-0.762491
-0.676809
-0.836888
-0.605143
-0.635756
-0.534323
-0.454889
-0.373079
-0.290022
-0.206673
-0.123905
-0.0413063
50.4616
50.4669
50.4789
50.4982
50.5251
50.5588
50.6019
50.6367
50.723
50.7059
50.8249
50.8114
50.8761
-0.773608
-0.687678
-0.84732
-0.614438
-0.644135
-0.541546
-0.460978
-0.378026
-0.293839
-0.209379
-0.125519
-0.0418414
50.4563
50.4615
50.4732
50.4921
50.5184
50.5516
50.5942
50.6299
50.7146
50.7009
50.818
50.8081
50.8737
-0.785683
-0.699428
-0.858571
-0.624482
-0.653181
-0.549348
-0.467555
-0.38337
-0.297963
-0.212302
-0.127263
-0.0424195
50.451
50.4559
50.4672
50.4856
50.5113
50.544
50.5861
50.6225
50.7055
50.6954
50.8106
50.8047
50.8713
-0.798526
-0.71188
-0.870476
-0.635124
-0.662763
-0.557615
-0.474526
-0.389034
-0.302333
-0.215401
-0.129112
-0.0430323
50.4455
50.4502
50.4612
50.4789
50.504
50.5361
50.5775
50.6147
50.6959
50.6894
50.8031
50.8015
50.8692
-0.811943
-0.724842
-0.882854
-0.646203
-0.672737
-0.566223
-0.481785
-0.394934
-0.306886
-0.218629
-0.131038
-0.0436708
50.4401
50.4446
50.455
50.4722
50.4965
50.5279
50.5687
50.6065
50.6859
50.6831
50.7955
50.7987
50.8674
-0.82572
-0.73811
-0.895516
-0.657549
-0.682951
-0.575041
-0.489222
-0.400979
-0.311551
-0.221937
-0.133012
-0.0443252
50.4349
50.439
50.449
50.4654
50.489
50.5196
50.5598
50.5981
50.6758
50.6767
50.7883
50.7967
50.8665
-0.83964
-0.751475
-0.908261
-0.668982
-0.693245
-0.583929
-0.496722
-0.407075
-0.316256
-0.225273
-0.135003
-0.0449853
50.4298
50.4337
50.4431
50.4588
50.4815
50.5114
50.5509
50.5898
50.6658
50.6704
50.7817
50.7952
50.8668
-0.853481
-0.764721
-0.920884
-0.680318
-0.703453
-0.592747
-0.504163
-0.413125
-0.320926
-0.228585
-0.136979
-0.0456406
50.425
50.4286
50.4374
50.4524
50.4743
50.5034
50.5422
50.5816
50.6561
50.6643
50.776
50.7949
50.8682
-0.867019
-0.777633
-0.933178
-0.691374
-0.713407
-0.601348
-0.511424
-0.41903
-0.325484
-0.231818
-0.138908
-0.0462803
50.4206
50.4238
50.4321
50.4464
50.4675
50.4958
50.5339
50.5737
50.6469
50.6587
50.7714
50.7953
50.8712
-0.880029
-0.790003
-0.944938
-0.701965
-0.722942
-0.609591
-0.518383
-0.424691
-0.329855
-0.234917
-0.140758
-0.0468937
50.4166
50.4196
50.4272
50.4408
50.4611
50.4886
50.526
50.5663
50.6384
50.6537
50.7679
50.797
50.8754
-0.892306
-0.801619
-0.955964
-0.711914
-0.731894
-0.617334
-0.524923
-0.43001
-0.333962
-0.23783
-0.142496
-0.0474703
50.4133
50.4158
50.4229
50.4357
50.4552
50.482
50.5189
50.5595
50.6308
50.6493
50.7656
50.7993
50.8808
-0.903641
-0.812312
-0.966071
-0.721056
-0.740111
-0.624445
-0.530929
-0.434896
-0.337735
-0.240507
-0.144094
-0.0480001
50.4106
50.4127
50.4191
50.4313
50.45
50.4762
50.5125
50.5535
50.6241
50.6457
50.7643
50.8024
50.8869
-0.91385
-0.821869
-0.975071
-0.729223
-0.747445
-0.630797
-0.536296
-0.439263
-0.341108
-0.242899
-0.145522
-0.0484737
50.4086
50.4102
50.416
50.4275
50.4456
50.4712
50.507
50.5483
50.6185
50.6427
50.7637
50.8058
50.8933
-0.92277
-0.8302
-0.982829
-0.736298
-0.753775
-0.636283
-0.540928
-0.443033
-0.344019
-0.244964
-0.146755
-0.0488826
50.4075
50.4083
50.4135
50.4244
50.442
50.4671
50.5026
50.5441
50.614
50.6403
50.7636
50.809
50.8992
-0.930263
-0.83707
-0.989178
-0.742124
-0.758973
-0.640793
-0.544741
-0.446137
-0.346416
-0.246665
-0.14777
-0.0492192
50.4078
50.4073
50.4117
50.4222
50.4393
50.464
50.4992
50.5408
50.6106
50.6386
50.7638
50.8116
50.9042
-0.936216
-0.842556
-0.994041
-0.746645
-0.762971
-0.64426
-0.547669
-0.448519
-0.348256
-0.24797
-0.148549
-0.0494773
50.4074
50.4066
50.4105
50.4207
50.4375
50.4619
50.4969
50.5387
50.6083
50.6375
50.7638
50.8137
50.9077
-0.940539
-0.846187
-0.997301
-0.74971
-0.765676
-0.6466
-0.549653
-0.450134
-0.349503
-0.248855
-0.149077
-0.0496522
50.4135
50.4072
50.41
50.42
50.4367
50.4609
50.4958
50.5377
50.6072
50.6371
50.7646
50.8149
50.9094
-0.943162
-0.848765
-0.998887
-0.751386
-0.767068
-0.647776
-0.550667
-0.450957
-0.350138
-0.249305
-0.149345
-0.04974
50.49
50.4885
50.4992
50.5192
50.5471
50.5819
50.6258
50.6557
50.7493
50.7112
50.8546
50.8181
50.8762
-0.736729
-0.649103
-0.806671
-0.578591
-0.608566
-0.51098
-0.433937
-0.355143
-0.275521
-0.195958
-0.117267
-0.0390095
50.4835
50.4867
50.4983
50.5183
50.5463
50.5811
50.625
50.6551
50.7483
50.713
50.848
50.8169
50.8766
-0.737323
-0.64997
-0.808346
-0.579817
-0.609798
-0.512065
-0.43483
-0.355869
-0.276081
-0.196353
-0.117503
-0.0390882
50.4806
50.4845
50.4965
50.5166
50.5445
50.5792
50.6231
50.6536
50.7461
50.7133
50.8446
50.8157
50.8768
-0.739768
-0.653161
-0.811554
-0.582579
-0.612313
-0.514227
-0.436641
-0.357336
-0.27721
-0.197153
-0.117979
-0.0392461
50.4765
50.4815
50.4938
50.5139
50.5417
50.5764
50.6201
50.6511
50.7426
50.7123
50.8404
50.8143
50.8764
-0.744168
-0.65768
-0.816295
-0.586652
-0.616053
-0.517437
-0.439339
-0.359523
-0.278895
-0.198345
-0.118689
-0.0394815
50.4724
50.4779
50.4904
50.5105
50.5381
50.5726
50.6161
50.6477
50.738
50.7103
50.8355
50.8122
50.8751
-0.750322
-0.664078
-0.822524
-0.592113
-0.62099
-0.521671
-0.442895
-0.362405
-0.281114
-0.199915
-0.119625
-0.0397915
50.4681
50.4738
50.4864
50.5063
50.5337
50.5678
50.6111
50.6433
50.7323
50.7073
50.8297
50.8095
50.8729
-0.75811
-0.671847
-0.830137
-0.598808
-0.62704
-0.526867
-0.447264
-0.365945
-0.28384
-0.201845
-0.120775
-0.0401723
50.4635
50.4693
50.4818
50.5014
50.5284
50.5623
50.6051
50.638
50.7255
50.7032
50.823
50.8059
50.87
-0.767424
-0.681116
-0.839061
-0.606694
-0.63414
-0.532965
-0.452389
-0.370099
-0.287039
-0.20411
-0.122125
-0.0406192
50.4586
50.4644
50.4767
50.4959
50.5225
50.5559
50.5983
50.6318
50.7175
50.6981
50.8153
50.8014
50.8663
-0.778112
-0.691619
-0.849157
-0.615646
-0.64219
-0.539883
-0.458205
-0.374813
-0.290668
-0.206679
-0.123656
-0.0411264
50.4534
50.4591
50.4711
50.49
50.516
50.5488
50.5906
50.6246
50.7084
50.692
50.8064
50.796
50.8616
-0.790002
-0.703256
-0.860299
-0.625545
-0.651081
-0.547529
-0.464632
-0.380022
-0.29468
-0.209519
-0.125349
-0.041687
50.4481
50.4536
50.4652
50.4836
50.509
50.5411
50.5822
50.6166
50.6984
50.6847
50.7964
50.7898
50.8561
-0.802916
-0.715842
-0.872325
-0.636249
-0.66069
-0.555796
-0.471583
-0.385656
-0.299019
-0.212591
-0.12718
-0.0422933
50.4427
50.4479
50.4591
50.4768
50.5015
50.5328
50.5731
50.6078
50.6873
50.6764
50.7852
50.7827
50.8497
-0.816659
-0.729187
-0.88506
-0.647599
-0.670879
-0.564564
-0.478956
-0.391634
-0.303623
-0.21585
-0.129123
-0.0429368
50.4372
50.4422
50.4529
50.4699
50.4937
50.5242
50.5635
50.5984
50.6755
50.6671
50.7731
50.7751
50.8425
-0.831017
-0.743086
-0.898312
-0.659426
-0.681495
-0.573703
-0.486644
-0.397868
-0.308424
-0.21925
-0.131149
-0.043608
50.4317
50.4364
50.4466
50.4629
50.4858
50.5153
50.5535
50.5884
50.663
50.6569
50.7602
50.767
50.8347
-0.845767
-0.757321
-0.911878
-0.671547
-0.692378
-0.583075
-0.494529
-0.404263
-0.31335
-0.222737
-0.133228
-0.0442968
50.4264
50.4307
50.4403
50.4558
50.4778
50.5062
50.5432
50.5781
50.6501
50.646
50.7469
50.7582
50.8266
-0.860675
-0.771666
-0.925543
-0.68377
-0.703357
-0.592531
-0.502488
-0.410719
-0.318324
-0.226259
-0.135328
-0.0449923
50.4212
50.4253
50.4342
50.4489
50.4698
50.4972
50.533
50.5676
50.6371
50.6348
50.7337
50.7494
50.8185
-0.875503
-0.785889
-0.939085
-0.695898
-0.714254
-0.601921
-0.510395
-0.417133
-0.323266
-0.229759
-0.137414
-0.0456837
50.4163
50.42
50.4284
50.4422
50.4621
50.4883
50.5229
50.5571
50.6241
50.6236
50.7209
50.7406
50.8109
-0.890007
-0.799757
-0.952282
-0.707734
-0.72489
-0.61109
-0.518117
-0.4234
-0.328094
-0.233178
-0.139453
-0.0463593
50.4118
50.4152
50.4229
50.4359
50.4547
50.4798
50.5132
50.5469
50.6116
50.6126
50.709
50.7323
50.8041
-0.90395
-0.813047
-0.964913
-0.719079
-0.735086
-0.619883
-0.525525
-0.429413
-0.332728
-0.23646
-0.14141
-0.0470078
50.4078
50.4108
50.4179
50.43
50.4478
50.4718
50.504
50.5372
50.5998
50.6023
50.6982
50.7249
50.7984
-0.917102
-0.825527
-0.97676
-0.729742
-0.744666
-0.62815
-0.532493
-0.435069
-0.337088
-0.239548
-0.143251
-0.047618
50.4044
50.407
50.4134
50.4246
50.4415
50.4644
50.4955
50.5283
50.5889
50.5929
50.6887
50.7184
50.7937
-0.929246
-0.837014
-0.987624
-0.739542
-0.753464
-0.635747
-0.538897
-0.440269
-0.341096
-0.242387
-0.144944
-0.0481792
50.4016
50.4037
50.4095
50.4199
50.4359
50.4579
50.4879
50.5202
50.5792
50.5844
50.6804
50.7127
50.7898
-0.940181
-0.84728
-0.997302
-0.7483
-0.761322
-0.642537
-0.544622
-0.444919
-0.344681
-0.244927
-0.146459
-0.0486813
50.3996
50.4012
50.4062
50.4159
50.4311
50.4522
50.4814
50.5132
50.5708
50.577
50.6734
50.7077
50.7864
-0.949732
-0.856223
-1.00565
-0.755887
-0.768107
-0.648404
-0.549568
-0.448935
-0.347778
-0.24712
-0.147767
-0.049115
50.3985
50.3993
50.4036
50.4127
50.4272
50.4476
50.476
50.5074
50.5639
50.5709
50.6674
50.7031
50.7832
-0.95775
-0.863598
-1.01248
-0.762133
-0.773681
-0.653229
-0.55364
-0.452244
-0.350329
-0.248928
-0.148845
-0.0494723
50.3987
50.3982
50.4017
50.4103
50.4242
50.444
50.4718
50.5029
50.5585
50.5662
50.6628
50.699
50.78
-0.964115
-0.869469
-1.01771
-0.766979
-0.777968
-0.656938
-0.556768
-0.454785
-0.352288
-0.250316
-0.149673
-0.0497466
50.3983
50.3975
50.4005
50.4087
50.4223
50.4417
50.4691
50.4999
50.5548
50.5629
50.6592
50.6956
50.777
-0.96873
-0.873364
-1.02122
-0.770265
-0.78087
-0.659443
-0.558888
-0.456508
-0.353617
-0.251257
-0.150235
-0.0499325
50.4044
50.3981
50.4
50.408
50.4214
50.4406
50.4677
50.4985
50.5529
50.5616
50.658
50.6922
50.7746
-0.971511
-0.876078
-1.02293
-0.772052
-0.782363
-0.660703
-0.559971
-0.457385
-0.354293
-0.251737
-0.15052
-0.0500262
50.4811
50.4798
50.4904
50.5101
50.5377
50.572
50.6155
50.6457
50.7379
50.7024
50.8426
50.8089
50.8674
-0.753175
-0.664203
-0.818621
-0.58889
-0.614114
-0.515777
-0.436331
-0.355917
-0.275275
-0.19523
-0.116522
-0.0386409
50.4745
50.4779
50.4895
50.5092
50.5368
50.5711
50.6146
50.645
50.7367
50.704
50.8357
50.8076
50.8677
-0.753865
-0.665195
-0.820412
-0.590217
-0.615429
-0.51693
-0.437279
-0.356684
-0.275865
-0.195646
-0.116769
-0.0387231
50.4716
50.4757
50.4876
50.5074
50.5349
50.5691
50.6125
50.6432
50.7342
50.7036
50.8322
50.806
50.8677
-0.756542
-0.668655
-0.823864
-0.593184
-0.618113
-0.519231
-0.439199
-0.358235
-0.277056
-0.196487
-0.117269
-0.0388887
50.4675
50.4727
50.4849
50.5047
50.532
50.5661
50.6092
50.6404
50.7303
50.702
50.8273
50.804
50.8667
-0.761321
-0.673569
-0.828969
-0.597563
-0.622107
-0.52265
-0.442062
-0.360549
-0.278833
-0.197743
-0.118016
-0.039136
50.4633
50.469
50.4815
50.5011
50.5282
50.562
50.6049
50.6365
50.725
50.6992
50.8214
50.8011
50.8646
-0.767993
-0.680497
-0.835682
-0.603429
-0.627383
-0.527161
-0.445838
-0.3636
-0.281177
-0.199399
-0.119002
-0.039462
50.4589
50.4649
50.4773
50.4968
50.5235
50.557
50.5994
50.6315
50.7184
50.6952
50.8143
50.797
50.8612
-0.776434
-0.68892
-0.843893
-0.610629
-0.633854
-0.532702
-0.45048
-0.367351
-0.284059
-0.201436
-0.120214
-0.039863
50.4543
50.4602
50.4726