/*--------------------------------*- C++ -*----------------------------------*\
  =========                 |
  \\      /  F ield         | OpenFOAM: The Open Source CFD Toolbox
   \\    /   O peration     | Website:  https://openfoam.org
    \\  /    A nd           | Version:  11
     \\/     M anipulation  |
\*---------------------------------------------------------------------------*/
FoamFile
{
    format      ascii;
    class       volScalarField;
    location    "30";
    object      k;
}
// * * * * * * * * * * * * * * * * * * * * * * * * * * * * * * * * * * * * * //

dimensions      [0 2 -2 0 0 0 0];

internalField   nonuniform List<scalar> 
17196
(
0.00937303
0.00824043
0.00736738
0.00666569
0.00610656
0.0056309
0.00524825
0.00490257
0.00463325
0.00435739
0.00413883
0.00388123
0.00368399
0.00347189
0.00332082
0.00316045
0.00302771
0.00284024
0.00266754
0.00245803
0.00220367
0.00362622
0.00482682
0.00678178
0.00747095
0.00973688
0.0090728
0.00854491
0.00808041
0.00774487
0.00736498
0.00706636
0.00674647
0.00651175
0.00623905
0.00597171
0.00567095
0.00539574
0.00511859
0.00484399
0.00462025
0.00435626
0.00419788
0.00387092
0.0037906
0.00322943
0.00400115
0.00611793
0.00746766
0.00807426
0.00973015
0.00908666
0.00853824
0.00810545
0.00774698
0.00740028
0.00709267
0.00684232
0.00659881
0.00636178
0.00608559
0.00581879
0.00553271
0.00528919
0.00502153
0.0048128
0.00460387
0.00441947
0.00416846
0.00399551
0.00388669
0.00394358
0.00666068
0.00823134
0.00845049
0.00972558
0.00909119
0.00854015
0.00810894
0.00774887
0.0074105
0.00710071
0.00685417
0.00660656
0.00635927
0.00609796
0.00583766
0.00558923
0.00533689
0.00507858
0.00486116
0.00466138
0.00449305
0.00428124
0.00405209
0.00404629
0.00391588
0.00565192
0.00706596
0.00938749
0.00972671
0.00909007
0.00853263
0.00810523
0.00774268
0.00740568
0.0070976
0.00685619
0.00659579
0.00634422
0.00606514
0.00584012
0.00558487
0.0053199
0.00504896
0.00482522
0.00463765
0.00442636
0.00431555
0.00409973
0.00407428
0.00407467
0.00555118
0.00591274
0.00915622
0.00972388
0.00909225
0.00852939
0.00811338
0.00774402
0.00742751
0.00711436
0.00687857
0.00659972
0.00633521
0.0060729
0.00586747
0.00559032
0.00532774
0.00505154
0.00483197
0.00466044
0.00445294
0.00433334
0.00421091
0.00410248
0.003934
0.00616484
0.0079929
0.0091831
0.00972465
0.00909228
0.0085138
0.00811507
0.00772703
0.0074259
0.00711805
0.00685982
0.00657803
0.00631411
0.00606017
0.00583211
0.00554815
0.00528565
0.00501835
0.00479117
0.00465152
0.00446842
0.00441312
0.00424329
0.00428373
0.00407725
0.00615188
0.00820261
0.00935999
0.00972495
0.00908996
0.00852557
0.00811465
0.00774074
0.00742965
0.00712072
0.00684156
0.0065703
0.00632014
0.00610772
0.00585203
0.00558145
0.00527748
0.00505072
0.00480891
0.00465285
0.00449483
0.00434796
0.00416628
0.00417707
0.00403533
0.00579686
0.00835321
0.00939871
0.00973437
0.00907906
0.00853042
0.00809769
0.00773754
0.00739313
0.00711929
0.00682203
0.00658385
0.00635752
0.00613042
0.00586206
0.00558042
0.00530062
0.00505692
0.00477649
0.00457686
0.00438458
0.00417977
0.00400002
0.00414349
0.00422995
0.00515733
0.00845541
0.00945754
0.00973308
0.0090782
0.00852762
0.00811361
0.00773174
0.00739971
0.00711649
0.0068412
0.00661114
0.00639316
0.00616103
0.00588073
0.00560939
0.00536713
0.00506301
0.00478939
0.004526
0.00416504
0.00413964
0.00401208
0.0040734
0.00410957
0.00435456
0.00749173
0.0095498
0.00972681
0.00908752
0.00850972
0.00811498
0.00770929
0.00738209
0.0070953
0.00685347
0.00662776
0.00639069
0.00618403
0.00589482
0.00565821
0.00536753
0.00504571
0.00474758
0.0044128
0.00410085
0.00417051
0.004224
0.00433554
0.00444858
0.00448502
0.00693432
0.00987269
0.00972536
0.00908643
0.00851645
0.00812393
0.00772395
0.00739649
0.00710672
0.00686709
0.00661572
0.00640396
0.00617312
0.00590514
0.00572655
0.00542626
0.00505492
0.00471726
0.00436233
0.00427115
0.00430324
0.0041448
0.00426009
0.00429843
0.00438781
0.00657324
0.0100359
0.00972846
0.00908437
0.00850933
0.00810483
0.0077263
0.0073994
0.00709589
0.00684516
0.00660631
0.00639036
0.00615968
0.00592206
0.00569876
0.00536011
0.00502287
0.004533
0.00434244
0.00428782
0.00412041
0.00447614
0.00434392
0.00488261
0.00556868
0.00684019
0.00867043
0.00973086
0.0090774
0.00851701
0.00810635
0.00773903
0.00741784
0.00710397
0.00684585
0.00660586
0.00637971
0.00614036
0.00592347
0.00559529
0.00536758
0.00488559
0.00464464
0.00462452
0.00468168
0.00455097
0.00457824
0.00466204
0.00615536
0.00777413
0.00806
0.00968976
0.00973646
0.00907163
0.00851044
0.00809516
0.0077236
0.0074079
0.00708796
0.00677291
0.00655605
0.00630396
0.00611303
0.0057779
0.00552525
0.00519563
0.00467402
0.00425809
0.00444885
0.00444337
0.00472493
0.00493118
0.00577713
0.0110093
0.0137437
0.0159138
0.0139208
0.00974464
0.00905775
0.00852062
0.00808292
0.00773713
0.0074101
0.00708958
0.00675933
0.00646993
0.00618234
0.00594572
0.0055723
0.00532278
0.00488556
0.00466758
0.00440588
0.00447403
0.00447127
0.00509909
0.0051596
0.00983064
0.0170478
0.0230569
0.0222717
0.0169652
0.00975266
0.00904708
0.00852779
0.00805529
0.00773967
0.00738108
0.00708603
0.00673554
0.00639657
0.00605776
0.00580094
0.00543699
0.00520135
0.00470603
0.00430276
0.00433284
0.00434039
0.00450386
0.00531071
0.00626055
0.0207079
0.0318235
0.0355543
0.0234661
0.0126553
0.00974065
0.0090589
0.00851614
0.00805896
0.00774111
0.00738258
0.00708886
0.00676897
0.00638461
0.00607366
0.00577265
0.00542822
0.00518318
0.0046332
0.00421236
0.00431279
0.00428651
0.00467378
0.00510514
0.0087198
0.0289623
0.0446395
0.0286214
0.0198367
0.0141469
0.0097312
0.00907057
0.00850025
0.00804991
0.00772332
0.00736787
0.00706101
0.00676797
0.00637687
0.00611734
0.00576533
0.00548373
0.00517044
0.00458413
0.00417069
0.00426922
0.00426553
0.00469811
0.00513844
0.0103609
0.0183893
0.0189026
0.0165682
0.0129769
0.0120029
0.00972134
0.00908119
0.00847916
0.00805585
0.00769679
0.00734872
0.00703586
0.00671238
0.00638273
0.00615882
0.00582987
0.00551162
0.00513539
0.00448613
0.00410021
0.00420315
0.00423819
0.0046218
0.00555239
0.0080634
0.0150743
0.0225448
0.0159992
0.0116193
0.0106452
0.00971467
0.00908792
0.00848453
0.00805321
0.00769635
0.00735036
0.00703016
0.00667388
0.00645895
0.00617171
0.00585639
0.00546885
0.00506127
0.00441562
0.00400816
0.00413316
0.00421096
0.00447575
0.00536529
0.00731252
0.0094408
0.0135111
0.0105611
0.00975075
0.00929633
0.0097119
0.00909447
0.00846378
0.00802361
0.00765455
0.00731959
0.00699961
0.00672504
0.00645389
0.00612893
0.00579083
0.00536292
0.00500851
0.0043829
0.0042424
0.0042969
0.00444282
0.00441579
0.00467765
0.00492432
0.00802968
0.00857588
0.00584515
0.00755507
0.00869305
0.00970253
0.00909717
0.00843827
0.0080125
0.00761479
0.00732341
0.00693871
0.00672645
0.00638651
0.00609148
0.00575438
0.00535573
0.00500732
0.0044779
0.00432755
0.0044059
0.00451495
0.00424198
0.00387041
0.00407319
0.00683399
0.0063312
0.00513279
0.00535483
0.0079526
0.00970519
0.00908122
0.00840923
0.00797875
0.00758523
0.00725855
0.00690851
0.00663877
0.00629835
0.00601259
0.00561574
0.00527388
0.00478276
0.00427179
0.0038082
0.00346325
0.00323311
0.00320404
0.00340321
0.00365704
0.00632313
0.00445283
0.0057635
0.00799245
0.00973066
0.00934663
0.0082675
0.0074253
0.00676486
0.00621134
0.00574233
0.00531342
0.00494598
0.00457521
0.00426504
0.00389814
0.00360872
0.00321966
0.00291136
0.00256034
0.00246073
0.00246377
0.00241376
0.00320826
0.00387364
0.00446758
0.00559585
0.00551075
0.00753267
0.00922655
0.00944775
0.00843703
0.00764855
0.00703369
0.00653978
0.00614603
0.0057716
0.00547937
0.00521449
0.00495789
0.00470519
0.0044211
0.00412027
0.0038836
0.00367742
0.00352259
0.00340246
0.00325321
0.00314727
0.00302954
0.00272431
0.00338931
0.00521761
0.00812051
0.00583867
0.00321103
0.00129589
0.000765302
0.000583681
0.000502202
0.000441471
0.000425306
0.000429286
0.000406493
0.000455082
0.000419824
0.00052896
0.00062593
0.000595463
0.000660543
0.000745105
0.000846388
0.000896916
0.00103393
0.00125714
0.00157415
0.00175417
0.00422078
0.00486848
0.00770307
0.00320039
0.00125106
0.000698655
0.000469265
0.000370712
0.000317419
0.000294085
0.000261035
0.000219108
0.00022613
0.000201479
0.000193591
0.000195914
0.000225176
0.000251299
0.000332755
0.000480237
0.000585137
0.000719106
0.000868034
0.00117994
0.00144302
0.00329899
0.00735421
0.00707756
0.00320019
0.00125168
0.000697081
0.000471195
0.000368238
0.000317735
0.000296777
0.00026367
0.000219334
0.000202767
0.0001879
0.000179015
0.000172905
0.00019998
0.000274787
0.000326427
0.000400166
0.000479664
0.000635341
0.00081455
0.00104373
0.00165494
0.00260781
0.0059294
0.00858399
0.00320063
0.00125216
0.000696565
0.000472078
0.000364782
0.00032307
0.000289292
0.000271371
0.000257522
0.000245005
0.000214278
0.000199226
0.000237413
0.000267332
0.000359563
0.000349101
0.000452255
0.000541285
0.000655228
0.000850039
0.00106078
0.0016575
0.00286278
0.00518125
0.00913877
0.0032008
0.0012525
0.000696914
0.000469693
0.00036892
0.00032455
0.000296594
0.000292477
0.000267583
0.000267337
0.000232229
0.000249167
0.000279044
0.000337619
0.00040929
0.000451953
0.000491087
0.000595413
0.000759504
0.000910154
0.00116735
0.00162743
0.00265776
0.00431275
0.00719215
0.00320092
0.00125425
0.000693666
0.000471844
0.000370424
0.000336242
0.000278714
0.000296697
0.000278629
0.000271857
0.00023576
0.000257396
0.000315039
0.000389872
0.000426002
0.000473351
0.000475303
0.000576347
0.000745513
0.00096287
0.00132081
0.00191752
0.00262965
0.00420089
0.00736457
0.00320062
0.00125691
0.000688868
0.000476149
0.000372982
0.000327344
0.000319589
0.000271789
0.000273656
0.000242644
0.000242938
0.00029898
0.000302382
0.000373448
0.000368821
0.000436465
0.000484864
0.000560467
0.000783235
0.000981425
0.00148705
0.00180587
0.00316437
0.00444181
0.0103944
0.0032011
0.00125653
0.00068959
0.000475694
0.000371278
0.000327899
0.000302778
0.000281456
0.000251941
0.000237188
0.000293706
0.000295898
0.000294253
0.000310443
0.000317328
0.000399307
0.000490521
0.000600165
0.000803005
0.00102126
0.00139742
0.00206752
0.0032366
0.00813975
0.00655883
0.00320135
0.00125531
0.0006923
0.000474841
0.00037305
0.000321208
0.000284796
0.000251741
0.000260394
0.000280082
0.000356681
0.000397146
0.000370865
0.000378
0.000363498
0.000388324
0.000477467
0.000594202
0.000840055
0.00109712
0.00155348
0.00181665
0.0043737
0.0198139
0.00570119
0.00320214
0.00125399
0.00069527
0.000467259
0.000386214
0.000312806
0.000248781
0.000253705
0.000316257
0.000306166
0.000308813
0.000368623
0.000362565
0.000390104
0.000382005
0.000380336
0.000443188
0.000672312
0.0011074
0.00153151
0.00202624
0.00273503
0.00399328
0.0207798
0.00599697
0.00320252
0.00125426
0.00069587
0.000464717
0.000399816
0.000290727
0.00025434
0.000282508
0.000351539
0.000340788
0.000326025
0.000323309
0.000381289
0.000382551
0.000359087
0.000361602
0.000470936
0.000957093
0.00167722
0.00213694
0.00316764
0.00343043
0.0073817
0.0105265
0.00594852
0.00320335
0.00125432
0.000695935
0.000466069
0.000397365
0.000325006
0.000258735
0.000284214
0.000305148
0.000299833
0.000375712
0.000346625
0.000374187
0.000358607
0.000339187
0.000354937
0.000614049
0.00154463
0.00251178
0.00341403
0.00510096
0.00507655
0.0131354
0.012311
0.0153327
0.00320317
0.00125757
0.000689766
0.000477367
0.000394063
0.000313757
0.00031549
0.000268791
0.000270469
0.000264105
0.000274304
0.000334608
0.000345539
0.000320085
0.000309134
0.000350356
0.0010805
0.00276786
0.00405025
0.00572497
0.0083023
0.0103168
0.0219295
0.0839559
0.0488713
0.00320368
0.00125616
0.000690924
0.000476454
0.000407025
0.000359518
0.000288421
0.00026291
0.000293057
0.000260847
0.000251043
0.000248942
0.000284357
0.000279479
0.000282269
0.000498872
0.00217536
0.0046564
0.00639155
0.0099944
0.0133835
0.0276611
0.0722918
0.0757973
0.0116168
0.00320358
0.00125702
0.000689019
0.000480045
0.000423342
0.000379573
0.000356184
0.000360366
0.000311419
0.000289331
0.000271028
0.000284576
0.000285142
0.000289012
0.00032917
0.000873537
0.00357892
0.0062406
0.00899855
0.0150402
0.0250528
0.0386322
0.0673242
0.0498065
0.00917184
0.00320497
0.00125395
0.000695645
0.000469722
0.000423404
0.000327629
0.000340432
0.000345119
0.000330323
0.000323663
0.000290161
0.000322219
0.000331541
0.000336506
0.000421813
0.00109199
0.00466459
0.00708087
0.0125919
0.0186799
0.0390596
0.0589836
0.0736077
0.0768371
0.00923903
0.00320529
0.00125847
0.000688563
0.00048112
0.000419332
0.000374028
0.000328575
0.000308613
0.000293103
0.000259072
0.0002573
0.000344247
0.00043884
0.000434867
0.000543226
0.00128809
0.00533753
0.00794737
0.0136342
0.022042
0.0499569
0.0692641
0.0678921
0.0703651
0.0143384
0.00320667
0.00126005
0.000687786
0.000482644
0.00038651
0.000353776
0.000323469
0.000295999
0.000278336
0.000240645
0.000250579
0.000372541
0.00047007
0.000471844
0.00060322
0.00140795
0.00489076
0.00863021
0.0137218
0.0239578
0.0577721
0.0564265
0.0377258
0.0256614
0.0101869
0.00320872
0.00125748
0.000697585
0.000467695
0.000381528
0.000324857
0.000274353
0.000223514
0.000205641
0.0002495
0.000402438
0.000649925
0.000633883
0.000626908
0.000661587
0.00173922
0.00399428
0.00928139
0.0126943
0.027478
0.0429251
0.0459367
0.0257003
0.0117588
0.0086236
0.00321096
0.00125382
0.000707701
0.000460141
0.000379874
0.00032531
0.000293689
0.000268311
0.00022844
0.000304631
0.000461527
0.000715199
0.000705967
0.000694923
0.000737136
0.00184275
0.00359922
0.00746441
0.011532
0.0189696
0.023692
0.0298493
0.0086873
0.00885372
0.00736909
0.00321223
0.00125426
0.000713097
0.000461348
0.000364359
0.000345677
0.000272554
0.000292967
0.000360637
0.000530789
0.000794891
0.000932591
0.00100624
0.00104072
0.00108727
0.00182541
0.00283694
0.00522684
0.00765687
0.0111384
0.0186118
0.0206777
0.0101369
0.00560883
0.00544784
0.00321405
0.00124933
0.000721885
0.000438389
0.000393729
0.000358851
0.00028537
0.000314001
0.00038962
0.000633753
0.000734492
0.00115489
0.00118081
0.0013687
0.00154709
0.00176275
0.0023853
0.0031676
0.00453038
0.00592663
0.0101235
0.0102959
0.00828193
0.007106
0.00814171
0.00323642
0.00127514
0.00073278
0.000447753
0.000477905
0.000519813
0.000626243
0.000774625
0.00101287
0.00129131
0.00162926
0.00172775
0.0019015
0.00195095
0.00225636
0.00260243
0.00288927
0.00323898
0.00363218
0.00375039
0.00762209
0.00748323
0.00614046
0.00516145
0.00615893
0.00943655
0.00845207
0.00754142
0.00702825
0.00654307
0.00608178
0.00572143
0.00539425
0.00510976
0.00477207
0.0044902
0.00418241
0.00392861
0.0035887
0.00353642
0.00357403
0.00352288
0.00331575
0.00325061
0.00328321
0.00514896
0.0087717
0.00659184
0.00874363
0.00914265
0.00944827
0.00843243
0.00763672
0.00701769
0.00650519
0.00609043
0.00571285
0.00542051
0.00514202
0.00489065
0.00464702
0.00441211
0.00419996
0.00403382
0.00386109
0.00368452
0.0035057
0.00328887
0.00314804
0.00295617
0.00292343
0.00298073
0.00340972
0.00441134
0.00466302
0.00319769
0.00128952
0.000750182
0.00054715
0.000439366
0.000379149
0.000335056
0.000382255
0.000377883
0.000537314
0.000466366
0.000666063
0.000634488
0.000630139
0.000880623
0.000766191
0.00101237
0.000953885
0.0010161
0.00161871
0.00191358
0.00211742
0.00286845
0.00328567
0.00348069
0.00318935
0.00123945
0.000683038
0.000450894
0.000330231
0.000258884
0.000211305
0.000180682
0.000155667
0.000144333
0.000131421
0.000125972
0.000121227
0.000129641
0.000151314
0.000168911
0.000169973
0.00020465
0.000221631
0.000348014
0.000507166
0.000833696
0.00147914
0.00414268
0.00434875
0.00318922
0.00123907
0.000682715
0.000450379
0.000329742
0.000257672
0.000211062
0.000178375
0.000154467
0.000136805
0.000121589
0.000109442
9.92622e-05
9.13467e-05
8.74312e-05
8.61596e-05
8.82189e-05
9.54025e-05
0.000106358
0.000141143
0.000246295
0.000495444
0.00096404
0.00420155
0.00269943
0.0031893
0.00123894
0.000682405
0.000450131
0.000329487
0.000257323
0.000211082
0.000177962
0.000154941
0.000136488
0.000121175
0.000109404
9.7812e-05
9.22894e-05
8.21023e-05
8.32494e-05
8.10366e-05
8.83481e-05
9.84399e-05
0.00012379
0.00019467
0.000473567
0.00107164
0.00270998
0.00741262
0.00318906
0.00123864
0.000682405
0.000450083
0.000329725
0.000257453
0.000211439
0.000178144
0.000155332
0.000136581
0.000121527
0.000110011
9.87192e-05
9.40345e-05
8.3042e-05
7.92766e-05
7.64433e-05
8.74456e-05
0.000102515
0.000126605
0.000202218
0.000457076
0.00120471
0.00291779
0.00781301
0.0031891
0.00123827
0.000682384
0.000449681
0.000329899
0.000257117
0.000211447
0.000177951
0.000155434
0.000135918
0.000122295
0.000109709
9.91261e-05
9.3829e-05
8.30188e-05
8.28157e-05
7.89897e-05
8.73267e-05
0.000109489
0.000153547
0.000229768
0.000535804
0.00126749
0.00423349
0.0135762
0.00318884
0.00123807
0.000682562
0.000449753
0.000330161
0.000257212
0.000211585
0.000178188
0.000155382
0.000136347
0.000122245
0.000109585
0.000100118
9.21365e-05
8.35863e-05
8.3216e-05
8.83458e-05
9.9877e-05
0.000159806
0.0002179
0.000405776
0.000654416
0.00191812
0.00973798
0.0218566
0.00318905
0.00123814
0.000682473
0.000449662
0.000329964
0.000257041
0.000211427
0.000178096
0.000154788
0.000136439
0.000121877
0.000109066
0.000100727
9.21795e-05
8.36787e-05
8.50087e-05
8.41813e-05
0.000126534
0.000321416
0.00049404
0.000789717
0.00166815
0.00217253
0.0620355
0.0269616
0.00318891
0.00123849
0.000682763
0.000450301
0.000330157
0.00025732
0.000211704
0.000177856
0.00015488
0.000136281
0.000121424
0.000108986
0.000102117
9.32481e-05
8.44373e-05
8.49127e-05
8.65101e-05
0.00026811
0.000795292
0.0012356
0.00177703
0.0025484
0.00687234
0.0810891
0.0246777
0.0031892
0.00123898
0.000682883
0.000450232
0.000330068
0.00025697
0.000211685
0.000177063
0.000155078
0.000135847
0.000121027
0.000110144
0.000102312
9.42876e-05
8.68399e-05
8.5455e-05
0.000164162
0.000850351
0.00203476
0.00285965
0.00418516
0.00423236
0.00770738
0.0631713
0.0173342
0.00318917
0.00123962
0.000683386
0.000450773
0.000330343
0.000257221
0.000211396
0.000177109
0.000155366
0.000135985
0.000121637
0.000111052
0.00010321
9.30219e-05
9.09608e-05
8.80486e-05
0.000612056
0.00237519
0.00404418
0.00604844
0.00714625
0.00898977
0.0372792
0.127481
0.0244256
0.00318929
0.00123969
0.000683144
0.00045104
0.000329674
0.000257557
0.000210002
0.000177618
0.00015525
0.000137272
0.000123562
0.000114243
0.000103138
9.40429e-05
9.22105e-05
0.00015689
0.00184106
0.0052435
0.00757247
0.0126552
0.0129063
0.0261691
0.119688
0.118455
0.0102856
0.0031892
0.00123983
0.0006833
0.000451445
0.000329847
0.000258094
0.000209667
0.000178119
0.000155243
0.000138202
0.000126775
0.000115098
0.000103822
9.5143e-05
9.27051e-05
0.000845776
0.00447411
0.0101962
0.0133848
0.0220624
0.02523
0.0683228
0.148346
0.150449
0.025662
0.0031893
0.00123978
0.000683337
0.000451197
0.000330168
0.000257909
0.000209801
0.000178166
0.000155096
0.000138579
0.000130066
0.00011387
0.000107758
0.000100719
0.000196507
0.00291822
0.00859412
0.0155872
0.0227322
0.0362902
0.0539595
0.0834519
0.128969
0.0465205
0.0108792
0.00318908
0.00123886
0.00068339
0.000450472
0.000330871
0.000257985
0.000210272
0.000179481
0.000153826
0.000141413
0.000128029
0.0001177
0.000105756
0.000103025
0.000401266
0.00462858
0.0116328
0.0191727
0.033902
0.0519845
0.0745673
0.0863474
0.0947293
0.0682843
0.0024549
0.00318897
0.00123873
0.000682714
0.000451125
0.000330587
0.000258313
0.0002103
0.000179683
0.000154312
0.000142484
0.000126506
0.000121176
0.000107921
0.000103435
0.00082483
0.00605403
0.0129265
0.0249198
0.0398003
0.0619457
0.0876578
0.0886643
0.103179
0.0549019
0.00642873
0.00318876
0.00123866
0.000682252
0.000451811
0.000330583
0.000258386
0.000210939
0.000179324
0.000154119
0.000142736
0.000124371
0.000116628
0.000111588
0.000112399
0.000606313
0.00602174
0.0125791
0.0268787
0.0408109
0.0692533
0.0964888
0.0893999
0.0898568
0.0518537
0.00760781
0.00318868
0.00123788
0.000682572
0.000451972
0.000330474
0.000258259
0.00021203
0.000178497
0.000153718
0.000142966
0.000126227
0.000111061
0.000107748
0.000102912
0.00102854
0.0065838
0.0126094
0.0275413
0.0434547
0.0759126
0.0949764
0.0820291
0.0269907
0.0321574
0.010926
0.00318858
0.00123797
0.000682528
0.000451321
0.000331247
0.000257168
0.000212656
0.00017771
0.00015446
0.000144928
0.000122782
0.000137752
0.000124746
0.000126694
0.00123031
0.00573052
0.0136935
0.027129
0.0437824
0.0718303
0.0933647
0.0736957
0.0159307
0.0148298
0.0107032
0.00318879
0.00123893
0.000683639
0.000451188
0.000331712
0.00025964
0.000212873
0.000181653
0.000153002
0.000143921
0.000122377
0.000126277
0.000167115
0.000165973
0.000898279
0.00448736
0.0107719
0.0224156
0.0404919
0.0569848
0.0856516
0.0643364
0.0173369
0.0121351
0.00750071
0.00318941
0.00123978
0.000684
0.000449895
0.000329378
0.000260056
0.000213609
0.00018264
0.000146855
0.000132486
0.000115042
0.000112408
0.00014335
0.000147063
0.000185153
0.00308874
0.00593829
0.0134156
0.0276659
0.0416689
0.0577929
0.0462025
0.0157826
0.0125289
0.00786098
0.00318923
0.00123976
0.000683386
0.000448262
0.000331217
0.000255225
0.000218058
0.000181061
0.000158205
0.000139008
0.000119649
0.000113575
0.00018083
0.000236225
0.000254612
0.0010448
0.00336737
0.00610638
0.0112902
0.0165393
0.0282086
0.0262537
0.00895529
0.0126115
0.0121597
0.00321716
0.00127096
0.000689879
0.000491627
0.000365219
0.00026651
0.000258889
0.000303586
0.000331536
0.000272697
0.000257075
0.000245481
0.000347061
0.00038137
0.000418962
0.000752613
0.00180961
0.00316216
0.00656672
0.00686032
0.011877
0.0164764
0.0140634
0.00832731
0.01273
0.00942779
0.00845586
0.00750306
0.00694272
0.00640642
0.00594128
0.00571233
0.00537305
0.00496828
0.00452584
0.00417894
0.00379362
0.00350683
0.00339931
0.00343907
0.00350526
0.00341693
0.00369033
0.00379216
0.00391279
0.00720644
0.0126459
0.00924113
0.00882243
0.013009
0.00945245
0.00842501
0.00764461
0.00701193
0.00651614
0.00609369
0.00575149
0.00543528
0.00516875
0.00493099
0.00464516
0.00438055
0.00411239
0.00388163
0.00367094
0.00350387
0.00333219
0.00313261
0.00300378
0.00297502
0.00282676
0.00289967
0.00278688
0.00298269
0.0053056
0.00319794
0.00129172
0.00074989
0.000554963
0.000482675
0.000397446
0.000419053
0.000461367
0.000439655
0.000374165
0.000435963
0.000411443
0.000620594
0.000717471
0.000860605
0.000763375
0.000960262
0.00111564
0.000912077
0.00145825
0.00144409
0.00209517
0.00292439
0.00342068
0.00369052
0.00318934
0.00123952
0.000683144
0.000451128
0.000331745
0.000259963
0.00021265
0.000182413
0.000159679
0.000140771
0.000127133
0.000113433
0.000120292
0.000131526
0.000124085
0.000164307
0.000171887
0.000198351
0.00016653
0.000326749
0.000339947
0.000711569
0.00136502
0.00414714
0.00620544
0.00318919
0.00123919
0.000682852
0.000450688
0.00033047
0.000258498
0.000211954
0.000178443
0.000154855
0.000135922
0.000121252
0.000108685
9.99816e-05
9.19001e-05
8.70133e-05
8.34136e-05
8.64318e-05
9.18213e-05
8.34127e-05
0.000130779
0.00012046
0.00039008
0.000872782
0.00465132
0.00548527
0.00318913
0.00123869
0.000682555
0.000450493
0.000330264
0.000258377
0.00021187
0.000178041
0.000154641
0.000135713
0.000120867
0.000109028
9.86866e-05
9.00031e-05
8.50987e-05
7.94176e-05
7.33717e-05
7.80453e-05
7.43495e-05
0.000107012
0.000123613
0.00033089
0.000783128
0.00484392
0.00599519
0.0031889
0.0012383
0.000682664
0.000450466
0.000330663
0.000258354
0.000211976
0.000177971
0.000154842
0.000135729
0.000120868
0.000108756
9.84144e-05
9.03986e-05
8.60771e-05
7.69866e-05
7.43928e-05
7.79904e-05
8.02946e-05
0.000104855
0.000154665
0.000320722
0.00115155
0.0062499
0.0128159
0.00318913
0.00123842
0.000682932
0.000449964
0.000331081
0.000257686
0.000212205
0.000177632
0.00015472
0.000135376
0.000121128
0.000108027
9.88071e-05
9.07825e-05
8.41843e-05
7.55368e-05
7.34245e-05
8.39812e-05
0.000113713
0.000157762
0.000223091
0.000432595
0.00246934
0.0120541
0.0273197
0.00318909
0.00123879
0.000683061
0.000450389
0.0003312
0.000257997
0.000211956
0.000178287
0.000154152
0.00013627
0.000120621
0.000108016
0.000100515
8.86547e-05
8.49622e-05
7.70499e-05
7.88197e-05
0.000121312
0.000248796
0.000316535
0.00064695
0.00084043
0.00298389
0.045754
0.0497363
0.00318925
0.00123877
0.000682694
0.000450531
0.00033089
0.000257897
0.000211876
0.000177885
0.00015417
0.00013602
0.000119901
0.000108512
0.000100437
8.78102e-05
8.43271e-05
8.15724e-05
9.96884e-05
0.00026819
0.000717446
0.000948061
0.00187689
0.00304631
0.0125591
0.116839
0.0684721
0.00318897
0.00123855
0.000682601
0.00045069
0.000330965
0.000257868
0.000212233
0.000177504
0.000154801
0.000135784
0.000119623
0.000110109
9.916e-05
8.72037e-05
8.85185e-05
8.39753e-05
0.000191952
0.000920322
0.00243313
0.00283131
0.0058218
0.00599029
0.0504353
0.193748
0.0650152
0.00318893
0.0012379
0.000682106
0.000450351
0.00033061
0.000257972
0.000211958
0.000177204
0.000154962
0.000134875
0.000120145
0.000110597
9.74774e-05
8.70732e-05
9.15218e-05
8.97193e-05
0.000619174
0.00352749
0.00653503
0.00957134
0.0108962
0.0198078
0.135673
0.164662
0.0679425
0.00318852
0.00123736
0.000681607
0.000450823
0.000329843
0.000258917
0.000210841
0.000178014
0.00015441
0.000134403
0.000121021
0.000110328
9.55063e-05
9.07528e-05
0.000102357
0.000120731
0.00247452
0.00828557
0.0142557
0.0185934
0.024737
0.0453859
0.175798
0.169556
0.0497256
0.00318851
0.00123708
0.000681109
0.000451214
0.000329309
0.000259227
0.000210266
0.000178147
0.000154602
0.000133967
0.000123261
0.000108875
9.47e-05
9.20093e-05
9.90794e-05
0.00120067
0.00582624
0.0166571
0.0221198
0.0353927
0.0461515
0.0864818
0.186978
0.159106
0.00930615
0.0031883
0.00123667
0.000681094
0.000450821
0.000329885
0.000258465
0.000211012
0.000178043
0.000153718
0.000135253
0.000123463
0.000106754
9.49216e-05
9.17357e-05
0.000268578
0.00473738
0.0121914
0.0244491
0.0377053
0.0587094
0.0724165
0.11818
0.177334
0.198631
0.019088
0.00318858
0.00123699
0.000681763
0.000450251
0.000330468
0.000257147
0.000211889
0.00017673
0.00015363
0.000136235
0.000121888
0.000105684
9.49151e-05
9.3443e-05
0.00169092
0.00856475
0.017422
0.034637
0.0556892
0.0768931
0.0857633
0.108031
0.156183
0.106598
0.0077585
0.00318843
0.00123726
0.000681373
0.000450867
0.000329621
0.000257988
0.000210771
0.000177383
0.000152126
0.000138136
0.000118335
0.000105504
9.39192e-05
9.3358e-05
0.00426471
0.00844999
0.024528
0.0414521
0.0665684
0.0890092
0.0977647
0.117403
0.177488
0.075037
0.00809288
0.00318838
0.00123677
0.000681057
0.00045078
0.000329573
0.00025827
0.000211151
0.000176648
0.000152999
0.00013715
0.000115662
0.000107808
9.71078e-05
5.71169e-05
0.00479549
0.00988459
0.0285253
0.0475346
0.0684547
0.0943873
0.10534
0.114559
0.139106
0.0871506
0.00195841
0.00318832
0.00123694
0.00068101
0.000450993
0.000329795
0.000258391
0.000211358
0.000177151
0.000154244
0.000136919
0.000116795
0.00010782
0.000107279
7.98071e-05
0.00446583
0.0110381
0.0288974
0.050618
0.0668191
0.0909815
0.109375
0.127994
0.0942976
0.0918197
0.00575357
0.00318835
0.00123688
0.000680835
0.000450616
0.000329677
0.00025815
0.000211971
0.000178443
0.000156513
0.000137684
0.000118144
0.000107259
0.000106116
9.9029e-05
0.00433451
0.00971944
0.0303666
0.0480227
0.0672433
0.0884754
0.100927
0.102804
0.0758018
0.0167689
0.00518346
0.00318852
0.00123791
0.000681528
0.000451055
0.000328781
0.000258756
0.000212096
0.000179201
0.000156922
0.000140116
0.00011841
0.00011112
0.000103892
0.000457305
0.00316325
0.0130265
0.0293506
0.0418295
0.0576037
0.0821123
0.0994251
0.0776505
0.0442222
0.0218287
0.00551152
0.00318935
0.00124122
0.000682582
0.000451889
0.000327755
0.000259744
0.000212027
0.000180743
0.000154779
0.000141381
0.000121465
0.000114331
0.000105509
0.000309984
0.00279057
0.0122796
0.0254475
0.037229
0.0548454
0.0726641
0.0876215
0.0637556
0.0395335
0.0164898
0.00741709
0.00319016
0.0012461
0.000686156
0.000453517
0.0003296
0.00026028
0.000213153
0.00018194
0.000153017
0.000143457
0.000123899
0.000126921
0.000128058
0.000155169
0.00269611
0.00460397
0.0203685
0.0353093
0.0498236
0.0600185
0.0754036
0.0525449
0.0325462
0.0170154
0.00510229
0.00319049
0.00124436
0.000685987
0.000452824
0.000328909
0.000258914
0.000215931
0.000177359
0.000143105
0.00013928
0.000136319
0.000139115
0.000243716
0.00023515
0.000737391
0.00285748
0.0104655
0.0232977
0.0402768
0.0542546
0.0619548
0.0389162
0.0307054
0.0551705
0.0229808
0.00322932
0.00126826
0.000712131
0.00046953
0.000379427
0.000312511
0.000245044
0.000293301
0.000388796
0.000411934
0.000442432
0.000471173
0.00055849
0.000613623
0.000687686
0.00206175
0.00428749
0.0121672
0.0249523
0.0303251
0.043803
0.0364602
0.0176248
0.0248226
0.0252247
0.00945137
0.00841683
0.0075478
0.00683443
0.00647081
0.00580989
0.00547669
0.00517911
0.00500848
0.004631
0.00418702
0.00387054
0.00332003
0.00317823
0.00299332
0.00334203
0.00395334
0.00601657
0.00685904
0.00773538
0.0168458
0.0156512
0.0121736
0.0151194
0.0172682
0.00946109
0.00841583
0.00765872
0.00700106
0.00651838
0.00606496
0.00571539
0.00536106
0.00507812
0.00484271
0.00459559
0.00435559
0.00413197
0.00395373
0.00374146
0.00363026
0.00341491
0.00333684
0.00328356
0.00325861
0.00343082
0.00365438
0.00378304
0.00426997
0.00697289
0.00319883
0.00129941
0.00074086
0.000587075
0.000495511
0.000390169
0.000333839
0.000484105
0.000562575
0.000505665
0.000604423
0.000598615
0.000680287
0.000701494
0.00102762
0.000886177
0.00108157
0.00112205
0.00113163
0.00211074
0.0024128
0.00306907
0.00499607
0.0046193
0.00826327
0.00318959
0.00124103
0.000683397
0.000452108
0.000330612
0.000259657
0.000210747
0.000180513
0.000164707
0.000146102
0.000132513
0.000126343
0.000117643
0.000138899
0.00013564
0.000188741
0.000156221
0.000270761
0.000263566
0.000458098
0.000734347
0.00175087
0.00446536
0.00875614
0.0138208
0.00318935
0.00124022
0.000683387
0.000450611
0.00032954
0.000257505
0.000210866
0.0001776
0.000154273
0.000135558
0.000121413
0.000109702
0.000100655
9.39385e-05
8.8632e-05
9.34378e-05
9.49142e-05
0.000109586
0.00011572
0.000172054
0.000305382
0.00101618
0.00330255
0.00929566
0.00275567
0.00318939
0.00123995
0.000683172
0.000450164
0.000329497
0.000257409
0.000210981
0.000177051
0.000154201
0.000134606
0.000121246
0.000108092
9.91902e-05
9.06157e-05
8.51751e-05
8.01889e-05
7.76508e-05
8.5846e-05
9.62056e-05
0.000126118
0.000154302
0.000700324