/*--------------------------------*- C++ -*----------------------------------*\
  =========                 |
  \\      /  F ield         | OpenFOAM: The Open Source CFD Toolbox
   \\    /   O peration     | Website:  https://openfoam.org
    \\  /    A nd           | Version:  11
     \\/     M anipulation  |
\*---------------------------------------------------------------------------*/
FoamFile
{
    format      ascii;
    class       volScalarField;
    location    "30";
    object      nut;
}
// * * * * * * * * * * * * * * * * * * * * * * * * * * * * * * * * * * * * * //

dimensions      [0 2 -1 0 0 0 0];

internalField   nonuniform List<scalar> 
17196
(
0.104379
0.0904783
0.0798636
0.0710982
0.0642761
0.0586713
0.0540301
0.0497075
0.0463178
0.0430654
0.0404064
0.0376682
0.0358685
0.0340516
0.0328544
0.0316674
0.0310942
0.0305142
0.0309485
0.0334037
0.0413707
0.0954922
0.075987
0.0571664
0.0454542
0.241241
0.220451
0.203122
0.187791
0.177574
0.167254
0.157081
0.145397
0.137271
0.129708
0.122419
0.114926
0.107379
0.0995139
0.0921225
0.0858528
0.0796617
0.0765102
0.0718907
0.0741784
0.0677908
0.0896491
0.129597
0.159555
0.0932713
0.241364
0.222013
0.204756
0.190681
0.180234
0.170496
0.16039
0.150853
0.142876
0.13642
0.129225
0.122271
0.114424
0.107444
0.100168
0.0943397
0.0893897
0.0856624
0.082225
0.0829319
0.0863273
0.091555
0.140442
0.162034
0.0922118
0.241286
0.22221
0.20478
0.190762
0.180414
0.170507
0.160452
0.151635
0.143708
0.136929
0.129858
0.12279
0.115667
0.108492
0.101812
0.0965847
0.0919625
0.0884515
0.0859719
0.0855445
0.0909217
0.0904015
0.116039
0.106312
0.0768763
0.241308
0.222161
0.20452
0.190722
0.180484
0.170398
0.16016
0.151436
0.143198
0.136274
0.12865
0.121955
0.114911
0.107816
0.101029
0.0958935
0.091763
0.0876317
0.0870867
0.0864966
0.0906914
0.0914917
0.104995
0.0656828
0.0636607
0.241221
0.222249
0.204348
0.190962
0.180804
0.170765
0.159808
0.15119
0.142998
0.135809
0.128257
0.121639
0.114263
0.107506
0.100599
0.0954933
0.0919758
0.0881214
0.0870468
0.087874
0.0896284
0.0854427
0.105404
0.0900292
0.0722733
0.241212
0.222264
0.203864
0.190949
0.180658
0.170444
0.158865
0.150153
0.142748
0.13532
0.127247
0.119923
0.112404
0.105854
0.0993226
0.0941368
0.0914488
0.0881352
0.0880343
0.0874772
0.0919577
0.0860043
0.0967481
0.0940226
0.0805467
0.24124
0.222249
0.204066
0.190792
0.181036
0.170286
0.158171
0.149468
0.142764
0.135038
0.127118
0.119222
0.112035
0.104766
0.099299
0.0939717
0.0910683
0.088305
0.0863045
0.0851162
0.0882911
0.0826708
0.0858416
0.0872531
0.0828811
0.241498
0.222001
0.204115
0.190184
0.180781
0.169158
0.157747
0.148904
0.142861
0.135014
0.126372
0.118405
0.111149
0.104457
0.0988856
0.0929996
0.0892264
0.0858752
0.082785
0.0811408
0.0859237
0.0836314
0.0718262
0.0777362
0.08068
0.241507
0.222068
0.203903
0.190301
0.18041
0.169024
0.157512
0.1492
0.14293
0.13466
0.125836
0.117856
0.110958
0.105068
0.0984849
0.0928094
0.0877275
0.0812951
0.0820159
0.081027
0.0828164
0.0781753
0.0576178
0.058357
0.0828771
0.241379
0.22234
0.203369
0.190215
0.179687
0.168142
0.156733
0.149281
0.142617
0.133509
0.12537
0.117385
0.111228
0.104506
0.0976735
0.0914985
0.0852225
0.0801443
0.0831423
0.0857168
0.087232
0.0809177
0.0644704
0.0797249
0.19141
0.241362
0.222339
0.203495
0.190466
0.179739
0.167702
0.156535
0.149402
0.14168
0.132816
0.124339
0.116827
0.111829
0.105034
0.0972228
0.0904007
0.0841226
0.0839123
0.0868218
0.0855804
0.0858751
0.0761927
0.0671276
0.0767906
0.341372
0.241447
0.22226
0.203328
0.190069
0.179435
0.166922
0.155719
0.148635
0.140833
0.131705
0.123356
0.116512
0.110784
0.103287
0.096057
0.0867014
0.0841285
0.0852956
0.0849292
0.0953629
0.088903
0.0869752
0.0822958
0.072821
0.335286
0.241552
0.222085
0.203476
0.190072
0.17932
0.166609
0.155221
0.148148
0.140217
0.130733
0.122239
0.11599
0.108386
0.102838
0.0928476
0.0888293
0.0902969
0.0946518
0.0965831
0.102379
0.100777
0.11438
0.101274
0.106375
0.27917
0.241786
0.221994
0.203271
0.189589
0.178465
0.165751
0.154211
0.145975
0.138811
0.128825
0.121281
0.112755
0.106632
0.0990421
0.0885464
0.0816811
0.0879819
0.0919668
0.104521
0.120449
0.142534
0.199075
0.129187
0.141656
0.221209
0.242074
0.221704
0.203434
0.189108
0.178328
0.165089
0.153392
0.144965
0.136914
0.126597
0.117856
0.108212
0.102072
0.0925819
0.0881736
0.0847673
0.0896684
0.0950765
0.119405
0.145204
0.251848
0.202371
0.153122
0.167846
0.194819
0.242322
0.221451
0.203618
0.188245
0.178114
0.164146
0.152664
0.143452
0.135181
0.12477
0.115287
0.105173
0.0991853
0.0887449
0.0811459
0.0836263
0.0881949
0.0988464
0.135184
0.204753
0.449694
0.273084
0.24613
0.262043
0.117551
0.242032
0.221778
0.203281
0.187814
0.177787
0.164713
0.152817
0.143017
0.13421
0.125317
0.11478
0.104716
0.0985388
0.0870565
0.0791802
0.0832852
0.0881417
0.106396
0.143498
0.340803
0.58671
0.381753
0.184465
0.230595
0.151753
0.241807
0.222157
0.202845
0.187032
0.177181
0.165167
0.152479
0.142281
0.133294
0.125881
0.11444
0.105659
0.0982978
0.0861217
0.0782658
0.082611
0.0887521
0.111146
0.159743
0.58543
0.453392
0.215574
0.176633
0.456659
0.207227
0.241542
0.222591
0.202183
0.186477
0.176558
0.165382
0.15223
0.141098
0.132846
0.125924
0.115336
0.106156
0.0977657
0.0845553
0.077089
0.0815813
0.0890853
0.111526
0.19015
0.526304
0.511727
0.440156
0.390735
0.453359
0.278991
0.241279
0.223018
0.202118
0.185727
0.176683
0.166095
0.152771
0.140643
0.133981
0.125353
0.115507
0.105351
0.0965586
0.0838101
0.0760061
0.0808088
0.0895754
0.109402
0.189632
0.417837
0.34961
0.408888
0.43163
0.338803
0.304512
0.240983
0.223363
0.201422
0.185238
0.176834
0.165557
0.151474
0.141117
0.133211
0.124043
0.114253
0.103712
0.0961852
0.0842285
0.0818334
0.0854265
0.0961641
0.111127
0.163438
0.2639
0.286869
0.331889
0.220736
0.351059
0.319553
0.240579
0.223412
0.200442
0.184908
0.17734
0.16695
0.150291
0.140757
0.131336
0.122968
0.11346
0.103725
0.0964246
0.0866973
0.0847464
0.0893064
0.099584
0.110902
0.132886
0.215622
0.219208
0.185352
0.102729
0.0612745
0.099987
0.240607
0.222523
0.199588
0.182917
0.174598
0.164866
0.150154
0.139497
0.129575
0.120939
0.11011
0.101367
0.0910423
0.0817272
0.0743089
0.0707995
0.0715158
0.0791728
0.0923234
0.0843715
0.145704
0.106581
0.0735317
0.080789
0.0808784
0.104577
0.0914182
0.080219
0.0706519
0.0642784
0.0587725
0.0528745
0.0478818
0.0433672
0.0396493
0.0355474
0.0324184
0.0287772
0.0262739
0.0237164
0.0245914
0.0288906
0.0377903
0.0693488
0.105774
0.0623059
0.0882191
0.0712324
0.0410812
0.0558832
0.117184
0.102926
0.091831
0.0829505
0.0762593
0.0711157
0.0656267
0.0607151
0.0568318
0.0535954
0.0504358
0.0472455
0.0437798
0.0408523
0.0384724
0.0366947
0.0354164
0.0339701
0.0335208
0.0344279
0.0349201
0.0513147
0.0960469
0.174291
0.182686
0.00948727
0.0092661
0.00949848
0.0106338
0.0121927
0.0134505
0.0156559
0.0185405
0.0201363
0.0254205
0.0261043
0.0362259
0.0467298
0.047939
0.0566727
0.0669274
0.0789473
0.0797452
0.0699458
0.0667407
0.0652255
0.0592255
0.127741
0.128116
0.192384
0.0094472
0.00893947
0.00865023
0.00849317
0.00892572
0.00959522
0.0107292
0.0111659
0.0107775
0.0125859
0.0125528
0.0133477
0.0148126
0.0184763
0.0221355
0.0310596
0.0472396
0.0600163
0.0773315
0.0952386
0.134347
0.12558
0.170592
0.2719
0.217202
0.00944654
0.00894581
0.00863253
0.00852803
0.00886195
0.00959998
0.0108198
0.0112802
0.0107964
0.0113086
0.0117169
0.0123504
0.0130795
0.0164391
0.0243319
0.0307344
0.0397794
0.0497364
0.0690751
0.0901159
0.120329
0.151815
0.130282
0.211451
0.226271
0.0094481
0.00894757
0.0086255
0.00854403
0.00878245
0.00976848
0.0105576
0.0116316
0.012702
0.0137036
0.0133845
0.0137843
0.0180283
0.0220627
0.0319779
0.0329614
0.0450429
0.0563069
0.0711427
0.0943737
0.12007
0.138567
0.122326
0.20109
0.201478
0.00944838
0.00895032
0.00863035
0.00850261
0.00888371
0.00981154
0.0108246
0.0125528
0.0132226
0.0149594
0.0144973
0.0172495
0.021219
0.0278986
0.0363976
0.0426411
0.0489842
0.0620547
0.0826711
0.101167
0.131363
0.116795
0.0995048
0.121715
0.1927
0.00944915
0.00896171
0.00858921
0.00854443
0.00892176
0.010161
0.0101742
0.0127289
0.0137701
0.0152072
0.014731
0.0178502
0.0240218
0.0323632
0.0379471
0.0447788
0.0473992
0.0599134
0.0808805
0.106269
0.149207
0.118448
0.082047
0.0808663
0.183329
0.00944815
0.00898255
0.00853001
0.00862284
0.00898076
0.00988827
0.0116506
0.0116601
0.0135008
0.0135429
0.0151788
0.0207986
0.0231527
0.0311357
0.0328897
0.0413585
0.0482798
0.0581613
0.0845084
0.107855
0.167605
0.0978204
0.0700388
0.0904148
0.0976615
0.00945013
0.00898027
0.00854013
0.00861267
0.00893722
0.00989379
0.0110436
0.0120708
0.0124339
0.0132453
0.0184422
0.0206766
0.022672
0.0259737
0.0283727
0.0379313
0.0489426
0.0622446
0.0862923
0.111211
0.148155
0.104298
0.0568852
0.0592398
0.0212039
0.00945089
0.00897496
0.00857393
0.00859335
0.00897017
0.00968156
0.0103687
0.0107732
0.0128538
0.0156669
0.0224911
0.0278556
0.0285717
0.0316613
0.0325876
0.0369337
0.0476929
0.0614672
0.0893954
0.118789
0.154847
0.0897877
0.0776771
0.211481
0.0162271
0.00945398
0.00896566
0.00861094
0.0084549
0.00929165
0.00941969
0.00905399
0.0108677
0.0156381
0.0172369
0.0195228
0.0258933
0.0279601
0.0326808
0.0343374
0.0361841
0.0438312
0.0686493
0.114494
0.162554
0.176074
0.145457
0.110361
0.343976
0.0500387
0.00945519
0.00896881
0.00861838
0.0084064
0.0096083
0.00875129
0.00924779
0.012106
0.0174106
0.0192099
0.0205984
0.0226907
0.0293087
0.0320597
0.0322982
0.0343351
0.04626
0.0958431
0.168271
0.220999
0.251275
0.256074
0.371778
0.111013
0.0630384
0.0094582
0.00896884
0.00861919
0.00843229
0.00955163
0.0097915
0.00941523
0.0121808
0.0151231
0.0168846
0.023682
0.0244118
0.0286262
0.0300035
0.0304078
0.0330684
0.0613147
0.158075
0.251817
0.315548
0.442409
0.403221
0.446144
0.187449
0.167878
0.00945767
0.00899466
0.00854362
0.00863431
0.00946501
0.00944521
0.0114752
0.0115085
0.0133527
0.0148848
0.0171715
0.0235733
0.0260676
0.0264712
0.0279724
0.0325794
0.107193
0.272669
0.385285
0.508062
0.706725
0.28169
0.712008
1.04413
0.429067
0.00945998
0.00898875
0.00855941
0.00861986
0.0097849
0.0108277
0.0104836
0.0112282
0.0144044
0.0146052
0.0156097
0.0173429
0.021203
0.0231973
0.0251485
0.0457154
0.212576
0.443549
0.562811
0.8396
0.564227
0.446965
0.715658
0.478645
0.0471717
0.00945987
0.00900007
0.00853779
0.00868473
0.0101701
0.0114233
0.0129259
0.0153353
0.0152589
0.0160437
0.0168527
0.0197039
0.0213628
0.0239207
0.0297549
0.0789195
0.33216
0.563985
0.750809
1.15945
0.897986
0.786624
0.530865
0.40549
0.0265927
0.00946476
0.0089808
0.00862133
0.0084956
0.0101759
0.00984847
0.0123576
0.0146256
0.0162493
0.0177744
0.0181606
0.0222222
0.0250734
0.0282583
0.0385757
0.102797
0.446867
0.662817
0.89254
1.38446
1.53609
1.14692
0.701054
0.651676
0.0371493
0.00946609
0.00901495
0.00853305
0.00869559
0.0100647
0.0112281
0.0119121
0.0130576
0.014396
0.0142517
0.0161004
0.023871
0.0335958
0.0372303
0.0484429
0.122493
0.512356
0.668241
0.974971
1.71568
1.6105
1.21872
0.574748
0.959756
0.0544961
0.00947123
0.00902679
0.00852349
0.00871378
0.00925077
0.0105897
0.0116854
0.0124869
0.013647
0.013178
0.0157681
0.0256733
0.03659
0.0407848
0.0558223
0.130462
0.444381
0.708946
1.11856
1.66181
2.00317
0.823738
0.459214
0.268923
0.0492333
0.00947823
0.00900788
0.00864366
0.00842732
0.00911725
0.00969664
0.00987351
0.00939831
0.0100318
0.0135906
0.0252266
0.0449565
0.0493938
0.0541723
0.0619388
0.162074
0.363035
0.810233
1.02602
2.00276
1.45975
0.930547
0.539172
0.12401
0.0606832
0.00948553
0.00898349
0.00877255
0.00828828
0.00906479
0.00969972
0.010564
0.0113114
0.0111195
0.016846
0.029031
0.0503899
0.055564
0.0603143
0.069434
0.175148
0.333
0.668565
0.97993
1.45305
1.06935
0.878127
0.198385
0.116967
0.0608562
0.00948944
0.00898224
0.00883778
0.00830984
0.0087174
0.0103491
0.00982627
0.0124276
0.0176146
0.029828
0.0498883
0.0664559
0.0785023
0.0897329
0.102757
0.177006
0.27108
0.510967
0.734299
1.01084
0.948026
0.560396
0.264763
0.105475
0.0499409
0.00949449
0.00894412
0.00895127
0.00789917
0.00945642
0.0107796
0.0103376
0.0133464
0.0191083
0.0354852
0.0460747
0.0813585
0.0920118
0.113843
0.140345
0.167776
0.236225
0.312054
0.438339
0.521176
0.493734
0.276565
0.211413
0.139307
0.0936572
0.00958007
0.00915243
0.00910937
0.00807624
0.0115323
0.0157617
0.0229905
0.0335531
0.0508453
0.0736369
0.1038
0.119822
0.140405
0.149094
0.178181
0.21149
0.241245
0.227115
0.194442
0.164726
0.154921
0.118064
0.146363
0.046716
0.0228626
0.117207
0.103776
0.0897695
0.0807805
0.0751456
0.0686682
0.0617357
0.0562195
0.0522216
0.047862
0.0440214
0.0402445
0.0375359
0.0342224
0.0336713
0.0353678
0.0383377
0.0414934
0.0495099
0.0659596
0.112301
0.232931
0.0773132
0.0515133
0.108293
0.117369
0.103202
0.092085
0.0833611
0.0768991
0.0711659
0.0649679
0.0601368
0.0566088
0.053673
0.0506383
0.0476966
0.0449375
0.0430013
0.0411787
0.0392424
0.0372561
0.0347671
0.0336133
0.0333152
0.0369571
0.0453452
0.0669412
0.126448
0.268817
0.00944113
0.00922767
0.0093207
0.00997879
0.0106923
0.0115945
0.0123712
0.0165563
0.0188052
0.0301834
0.0291764
0.0457698
0.0473995
0.0506118
0.0753757
0.0680213
0.0933299
0.0862336
0.0683576
0.0874588
0.0823684
0.0735603
0.0883952
0.11402
0.195706
0.00940894
0.00885973
0.00846738
0.00818293
0.00797554
0.00784801
0.00772359
0.00774822
0.00766209
0.00803565
0.00816888
0.00866108
0.00914123
0.0105924
0.0132601
0.0156731
0.0165776
0.0208408
0.0236183
0.0376992
0.0555436
0.0853053
0.0733516
0.14446
0.247763
0.00940839
0.00885987
0.00846739
0.00817419
0.00796489
0.00780708
0.00771341
0.00764172
0.00760738
0.00761832
0.00756899
0.00754175
0.00750389
0.00747476
0.00768779
0.00804963
0.00871615
0.00979127
0.0114056
0.0153908
0.0275121
0.0514533
0.0900982
0.177504
0.165104
0.00940894
0.00885876
0.0084643
0.00817143
0.00796036
0.00780172
0.00771376
0.00762931
0.00763068
0.00760339
0.00754719
0.00754101
0.00738308
0.00755476
0.0072213
0.00777708
0.0079758
0.00908599
0.0104665
0.0134285
0.0216658
0.0489375
0.11083
0.178458
0.147922
0.00940825
0.00885986
0.0084662
0.00817082
0.00796475
0.00780152
0.00772221
0.00762837
0.0076379
0.00759714
0.00755472
0.00756697
0.00743832
0.00768471
0.00728857
0.00737647
0.00749771
0.00893802
0.0108555
0.013635
0.0223564
0.047643
0.128084
0.25677
0.0340471
0.00940891
0.00885853
0.00846536
0.00816531
0.00796651
0.00778753
0.00772207
0.00762477
0.00765881
0.00757812
0.00762887
0.0075706
0.00750594
0.00770519
0.00731058
0.00774606
0.00775714
0.00890417
0.0115099
0.0163753
0.0247324
0.055532
0.123831
0.0781873
0.0271458
0.00940804
0.00886014
0.00846839
0.00816609
0.00797095
0.00778447
0.00772281
0.00763154
0.00765526
0.00760006
0.00763107
0.00756001
0.00760713
0.00758508
0.00737306
0.00778515
0.00865042
0.0100648
0.016508
0.0230819
0.042192
0.0648545
0.124932
0.130942
0.0322714
0.00940886
0.00885936
0.0084672
0.00816252
0.00796342
0.00777862
0.00771945
0.00763166
0.00763606
0.00761141
0.00761831
0.00755119
0.00768114
0.00760039
0.00740078
0.0079586
0.00824152
0.012701
0.0327909
0.0516079
0.0799252
0.160433
0.225972
0.502639
0.0412122
0.00940784
0.00886239
0.00846995
0.00817147
0.00796491
0.00778174
0.00772623
0.00761541
0.00763908
0.00759188
0.00761334
0.00753365
0.00781462
0.00766907
0.00747779
0.0080086
0.0084606
0.0267976
0.0794662
0.125608
0.178011
0.187273
0.113915
0.554335
0.0448611
0.00940872
0.0088624
0.00846971
0.00816781
0.00796111
0.00776773
0.00773464
0.00757842
0.00767271
0.00756581
0.00761427
0.00761991
0.00785601
0.00779572
0.00772783
0.00817787
0.0165836
0.0859161
0.202769
0.282196
0.407831
0.232686
0.317771
0.385261
0.034238
0.00940778
0.00886542
0.00847247
0.00817238
0.00796302
0.00777244
0.00772118
0.00757144
0.00769654
0.0075453
0.00767174
0.0076931
0.00790383
0.0076935
0.00827327
0.00829039
0.0612221
0.23157
0.391664
0.559629
0.638591
0.315401
0.692673
0.777312
0.0688098
0.00940853
0.00886599
0.00847015
0.00817549
0.00794419
0.00778602
0.00767143
0.00759939
0.00769038
0.00762224
0.00778224
0.00790595
0.00783289
0.00790252
0.00845759
0.0148003
0.168699
0.488138
0.679805
1.07613
0.620575
0.452231
1.8143
0.760548
0.0333148
0.00940766
0.00886833
0.0084731
0.00817577
0.00794259
0.00779403
0.0076468
0.00762772
0.00767003
0.0077076
0.00798372
0.00797905
0.00793427
0.008048
0.00854555
0.0772933
0.385491
0.891431
1.11542
1.71616
0.702037
1.80168
2.10844
1.04401
0.0832147
0.00940827
0.00886851
0.00847416
0.00817213
0.00794212
0.00778779
0.00764079
0.00762726
0.0076535
0.0077178
0.00822941
0.00784653
0.0082492
0.00861713
0.0172581
0.258886
0.720909
1.28801
1.74634
2.35509
1.57441
1.80376
0.918059
0.141543
0.0148785
0.00940753
0.00886881
0.00848171
0.00816134
0.00795013
0.00778116
0.00764284
0.00768471
0.00756564
0.0078996
0.00808954
0.00815218
0.00811336
0.00883776
0.0350814
0.410583
0.987611
1.51903
2.43539
2.92807
2.44522
1.58017
0.593991
0.266472
0.00342511
0.00940782
0.00887064
0.00847658
0.00817118
0.00793606
0.0077841
0.00763054
0.00768619
0.00757223
0.00795923
0.00794796
0.00836709
0.00834925
0.00857423
0.0736453
0.546883
1.12871
1.90468
2.89037
2.70769
3.37769
1.63515
0.720697
0.371627
0.0116957
0.0094072
0.00887434
0.00847393
0.00818442
0.00792983
0.0077783
0.0076267
0.00765866
0.00753485
0.00796546
0.00779862
0.00803883
0.00861916
0.00922203
0.0537923
0.543047
1.06725
2.04588
2.83294
2.52452
3.05739
1.48953
0.801737
0.480402
0.0121643
0.00940783
0.00887321
0.00848176
0.00818335
0.00793292
0.00776966
0.00768182
0.00760572
0.00754794
0.00794956
0.00795812
0.00765021
0.00836281
0.00845823
0.0912721
0.588354
1.06254
2.05636
2.50245
2.74812
2.8369
1.29614
0.366194
0.247863
0.0224022
0.00940773
0.00887542
0.0084849
0.00817573
0.0079574
0.00773675
0.00770489
0.00755215
0.00760881
0.00798877
0.00775872
0.00944432
0.00956855
0.0106844
0.107805
0.513101
1.17383
2.04691
2.28474
2.98965
2.76147
1.36342
0.193374
0.101793
0.0480681
0.00940804
0.008878
0.00849716
0.008179
0.00796181
0.00779309
0.00768878
0.00769957
0.00752082
0.0079437
0.00772215
0.00868297
0.0127603
0.0140852
0.0789223
0.403087
0.927214
1.71431
2.10515
2.58756
2.61794
1.35874
0.316199
0.120553
0.0445462
0.00940877
0.00887581
0.0085009
0.00817167
0.0079267
0.00780179
0.00772693
0.0077313
0.00722046
0.00730707
0.00725584
0.00772666
0.0109114
0.012442
0.0162327
0.268777
0.491119
1.04303
1.7098
1.97373
2.15164
1.12758
0.39039
0.160259
0.0800202
0.0094082
0.00887535
0.00849223
0.00814799
0.00798343
0.00766288
0.00790444
0.00766153
0.0077909
0.00763238
0.00752843
0.00773866
0.0136499
0.0194902
0.0225792
0.0939321
0.30328
0.509045
0.826235
0.972863
1.15455
0.501724
0.199507
0.142239
0.119384
0.00951316
0.00912789
0.00858704
0.00893112
0.00878993
0.00799211
0.00936456
0.0129745
0.0164254
0.0152685
0.0160993
0.0166774
0.0259673
0.0300862
0.0350642
0.0664963
0.155503
0.236967
0.494878
0.491597
0.565886
0.249843
0.181733
0.12448
0.189447
0.117339
0.104883
0.0900471
0.0797115
0.0752233
0.0694501
0.0626677
0.0566383
0.0516416
0.0463131
0.0419539
0.0374831
0.0344196
0.0335495
0.0332126
0.0348251
0.0377565
0.0483649
0.0613986
0.0789063
0.123003
0.208161
0.211469
0.110687
0.117188
0.117441
0.10317
0.0921564
0.0831081
0.0766327
0.0705777
0.0651728
0.0607935
0.0576575
0.0547502
0.0509786
0.0473667
0.0439893
0.0415133
0.0392815
0.03735
0.0351202
0.0324211
0.0308614
0.0315877
0.0332625
0.0411494
0.0516299
0.0820632
0.275236
0.00944249
0.00924536
0.00931667
0.0101273
0.0117601
0.0121383
0.0154332
0.0199544
0.0218131
0.0209693
0.0271556
0.0282659
0.0463038
0.0575753
0.0732536
0.0678901
0.0886682
0.101815
0.0690027
0.0856004
0.0525586
0.0577566
0.0647379
0.101592
0.256615
0.00940896
0.00885992
0.00846817
0.00818206
0.00800064
0.0078529
0.00774549
0.00779086
0.00784342
0.00781842
0.00789826
0.00778222
0.00904463
0.0106986
0.0108093
0.0151464
0.0165963
0.0200309
0.0174918
0.0351508
0.0346234
0.0729455
0.0492838
0.109797
0.28807
0.00940838
0.00886048
0.00846727
0.00817744
0.00797064
0.00780625
0.00771385
0.00761751
0.007609
0.00754886
0.00754865
0.00746922
0.00753351
0.00749143
0.00762129
0.00775098
0.00849085
0.00937879
0.00880136
0.0142834
0.0124384
0.0430554
0.0763459
0.146996
0.0450954
0.00940891
0.00885925
0.0084642
0.00817524
0.00796317
0.00780415
0.00771287
0.00761654
0.00760839
0.00755748
0.00752973
0.0075143
0.00745442
0.00736972
0.00747484
0.00740445
0.00720151
0.00798441
0.00781612
0.0114852
0.0129256
0.0353482
0.067402
0.148254
0.0178068
0.00940823
0.00885988
0.00846692
0.00817443
0.00796643
0.0078003
0.00771257
0.00761588
0.007609
0.0075577
0.00752405
0.00750333
0.00743655
0.00739705
0.00755988
0.00715461
0.00726334
0.00791506
0.00839573
0.0111044
0.0161237
0.0343807
0.0597348
0.0871909
0.0211497
0.00940895
0.00885836
0.00846945
0.008163
0.00797784
0.0077796
0.00773086
0.0075963
0.00761654
0.00754225
0.00756747
0.00746224
0.00749761
0.00745386
0.00741056
0.00704957
0.00716099
0.00845253
0.0117713
0.0163056
0.0230697
0.0441491
0.0673412
0.112015
0.0332538
0.00940813
0.00886065
0.00847236
0.00816694
0.00797745
0.00778532
0.00771698
0.00762104
0.00758291
0.00758935
0.00753427
0.00746064
0.00764433
0.00727914
0.00749015
0.00719855
0.00766134
0.0120817
0.025268
0.0323408
0.0632352
0.0839133
0.0545286
0.297461
0.0644376
0.00940883
0.00886066
0.00846948
0.00816807
0.00797058
0.00778072
0.00772179
0.00759657
0.00759597
0.0075647
0.00749981
0.00748149
0.00763557
0.00719899
0.0074469
0.00763669
0.00970648
0.0262559
0.070439
0.0916743
0.174731
0.163179
0.172901
0.482315
0.0799051
0.00940793
0.00886306
0.00847146
0.00817108
0.00797199
0.0077748
0.00773373
0.00755861
0.00763701
0.0075036
0.0075191
0.00755808
0.00759015
0.00712467
0.00791539
0.00786006
0.0191375
0.0914316
0.234532
0.264904
0.420483
0.212831
0.822115
0.984083
0.0711164
0.00940865
0.00886243
0.00846926
0.00817001
0.00796251
0.00778074
0.00771626
0.00755683
0.0076469
0.00746206
0.00756735
0.00760349
0.00745388
0.00717789
0.00822747
0.00861688
0.0601769
0.328129
0.588535
0.804703
0.548942
0.483456
1.26222
0.76564
0.078011
0.00940761
0.00886558
0.00846803
0.00818295
0.0079391
0.00780742
0.00766172
0.00758822
0.00760735
0.00745606
0.00761063
0.00760472
0.00722641
0.00762011
0.00930992
0.0110309
0.220409
0.696291
1.17754
1.155
0.883035
0.723796
1.25445
0.737045
0.0644899
0.00940831
0.00886628
0.00846284
0.00818929
0.00792102
0.00782159
0.00763125
0.0076089
0.00760021
0.00743478
0.00779048
0.00745418
0.00725679
0.00786525
0.00871024
0.103874
0.478413
1.30063
1.58922
1.88387
1.73897
1.69263
1.35
0.523486
0.012118
0.00940744
0.00886792
0.00846673
0.0081812
0.00793247
0.00779904
0.00764224
0.00761272
0.00751142
0.00750796
0.00778206
0.00731615
0.00733535
0.00785893
0.0232042
0.397939
0.959885
1.83214
2.60078
2.9068
1.95017
2.85247
1.63889
0.595684
0.0319704
0.0094083
0.00886661
0.00847236
0.0081674
0.00795008
0.00775498
0.00768217
0.00755077
0.00751305
0.00758036
0.0076593
0.00725508
0.00736927
0.00805638
0.147025
0.702654
1.44395
2.79191
3.74482
3.78379
2.72967
2.70027
1.64871
0.402218
0.0141047
0.00940722
0.00887093
0.00847023
0.00817948
0.00792483
0.00777671
0.00764004
0.00757176
0.00742111
0.0076911
0.00738887
0.00723976
0.00727184
0.00803
0.376663
0.746071
2.13798
3.23836
4.66884
4.97985
4.55991
2.8968
1.91107
0.260846
0.0173614
0.00940778
0.00887042
0.00847053
0.0081797
0.0079246
0.00777962
0.00764911
0.00752875
0.00747321
0.00762975
0.00724088
0.00740148
0.00756923
0.00470905
0.424452
0.83337
2.2883
3.44236
5.00955
5.37324
4.24947
2.43809
1.65885
0.269131
0.0030966
0.00940732
0.00887332
0.0084739
0.00818881
0.00791981
0.00778253
0.00764343
0.00753609
0.00752846
0.00759916
0.00730797
0.00739642
0.00829423
0.00654981
0.394922
0.934925
2.4043
4.08715
4.89368
4.06987
5.14776
2.43115
0.932799
0.279233
0.0110327
0.00940806
0.00887386
0.00847916
0.00818748
0.0079284
0.00778156
0.0076546
0.00757108
0.00759581
0.00762408
0.0073447
0.00735208
0.0083036
0.00807382
0.379988
0.811387
2.36518
3.66774
3.04887
3.47867
3.92254
1.57634
0.632779
0.0571903
0.0103569
0.00940817
0.00887748
0.00848973
0.00820271
0.00792994
0.00780763
0.00766219
0.0076201
0.00763211
0.00781006
0.00741534
0.00765096
0.00814948
0.0375241
0.278039
1.09514
2.19034
3.06623
2.18933
3.46905
2.7543
1.28585
0.473093
0.0761555
0.0126805
0.00940885
0.00888401
0.00849332
0.00822632
0.00791589
0.00783146
0.00766132
0.00768232
0.00755969
0.00789046
0.00763963
0.00791676
0.00820267
0.0262324
0.243621
1.01844
1.89959
2.57361
2.07619
3.06036
2.65612
1.46423
0.485836
0.0730138
0.0246688
0.00940816
0.00889409
0.00850977
0.00824324
0.00795614
0.00784332
0.00769162
0.00772683
0.00747266
0.00800542
0.00779444
0.00878034
0.00983789
0.0131521
0.22305
0.398264
1.55785
1.89408
1.97407
3.00095
2.66521
1.03044
0.467704
0.107431
0.0243711
0.00940999
0.0088864
0.00850589
0.00823065
0.00794001
0.00781033
0.0078304
0.0075271
0.00704009
0.00772095
0.00858482
0.00943837
0.0182864
0.0196197
0.0607757
0.248588
0.867199
1.54601
2.0052
2.4717
2.11468
0.739835
0.483044
0.485637
0.162364
0.00955626
0.00910876
0.00886202
0.00853495
0.00912753
0.00942485
0.00880127
0.0124497
0.01917
0.0232941
0.0281017
0.0323862
0.0418425
0.0495849
0.0588778
0.17322
0.341702
0.84256
1.54193
1.65121
1.73334
0.480008
0.236326
0.311439
0.2178
0.117773
0.104566
0.0913377
0.0785451
0.0755711
0.0689275
0.0608305
0.0541983
0.0515656
0.0473546
0.0423843
0.0387811
0.0331889
0.0317958
0.0286976
0.0320992
0.0411936
0.0711367
0.102397
0.152789
0.281686
0.261246
0.314482
0.217374
0.0879959
0.117455
0.103068
0.0924053
0.0833294
0.077387
0.071403
0.0658827
0.0605346
0.056728
0.0539884
0.051202
0.0480018
0.0449147
0.042881
0.0406767
0.0392717
0.0360918
0.0339444
0.0326563
0.033078
0.0377188
0.0462213
0.0583129
0.0828025
0.217872
0.00944546
0.00929416
0.00919878
0.0107394
0.0121005
0.0119471
0.0123212
0.0210438
0.0281343
0.0285386
0.0377264
0.0413728
0.0504067
0.0561864
0.0868126
0.0787809
0.100349
0.0783729
0.0585262
0.0775341
0.0604324
0.0532891
0.0934297
0.138555
0.449973
0.009409
0.00886406
0.00846647
0.0082043
0.00799284
0.00787777
0.00771945
0.00775635
0.00813814
0.00816319
0.00826917
0.00871442
0.00886463
0.0113065
0.0117979
0.0173736
0.0150695
0.0269384
0.027464
0.0458717
0.076355
0.0864106
0.089025
0.21368
0.537432
0.00940845
0.00886314
0.00847037
0.00818585
0.00796938
0.00781357
0.0077119
0.00762402
0.00761786
0.00755569
0.0075778
0.0075323
0.00757686
0.00764205
0.00771902
0.00862848
0.00920323
0.0110363
0.0121461
0.0176676
0.032778
0.086183
0.0853257
0.177491
0.0068112
0.00940905
0.00886179
0.00846884
0.00818057
0.00796576
0.00780536
0.00771863
0.0076134
0.00762627
0.00752862
0.00759163
0.00747374
0.00751722
0.00742289
0.00747811
0.00746256
0.00761503
0.00867011
0.0100153
0.0126891
0.0162657
0.0733478
0.0587136
0.147248
0.00941626
0.00940831
0.0088634
0.00847089
0.00818189
0.00797301
0.00780037
0.0077297
0.00759885
0.00762352
0.00753178
0.00755433
0.00749931
0.00744186
0.00750922
0.00742798
0.00713468
0.00735108
0.00781289
0.00958356
0.0160359
0.0144928
0.061374
0.0599144
0.10496
0.0203465
0.00940904
0.00886267
0.00847276
0.00817643
0.00797836
0.00779324
0.00772711
0.00759636
0.007613
0.00753854
0.00755323
0.00750295
0.00749027
0.00748973
0.00740839
0.00708925
0.00750008
0.0107842
0.0176506
0.0299719
0.0454771
0.0308545
0.182246
0.165046
0.0317611
0.00940823
0.00886474
0.00847637
0.00817939
0.0079791
0.00780414
0.00770137
0.00763829
0.00754053
0.00761322
0.00749395
0.00751575
0.00762755
0.00729999
0.00736413
0.00709737
0.00999138
0.0282122
0.0559789
0.0851192
0.130804
0.0768895
0.531573
0.549089
0.0520803
0.00940893
0.00886464
0.00847344
0.00818182
0.00797244
0.00780177
0.00770037
0.00762787
0.00756277
0.00761668
0.00746417
0.00765539
0.00754029
0.0071647
0.00740557
0.00782514
0.0252811
0.101121
0.198061
0.219877
0.334516
0.15129
0.763465
0.40679
0.0795102
0.00940796
0.0088685
0.00847341
0.00819497
0.00795469
0.00782552
0.00767812
0.00762325
0.00759163
0.00753163
0.00750819
0.00768276
0.00736932
0.00721937
0.00855469
0.0111407
0.0862384
0.351179
0.54509
0.733158
0.552346
0.491523
1.57866
0.873951
0.299061
0.00940868
0.00886926
0.00847145
0.00820158
0.00793567
0.00785622
0.00762572
0.00768709
0.00753337
0.00754083
0.00758882
0.007595
0.00721849
0.00777674
0.00942221
0.0203789
0.286268
0.863198
1.36886
1.02056
0.881523
0.647321
1.76269
0.766525
0.29339
0.00940802
0.00887035
0.00847955
0.00819329
0.007951
0.0078349
0.00761895
0.00769566
0.00745998
0.00757646
0.00770966
0.0074159
0.00721757
0.00809689
0.0170542
0.100769
0.534137
1.6129
1.76092
1.53426
1.12232
2.25643
2.84241
0.607844
0.199534
0.0094087
0.00886936
0.00848422
0.00818037
0.00797437
0.00778909
0.00768354
0.0076365
0.0074761
0.00761244
0.00761798
0.00736253
0.00725875
0.0103266
0.0431971
0.479128
1.01965
2.3111
2.24694
2.1824
3.23465
3.6314
3.4536
0.909217
0.0694747
0.00940772
0.00887373
0.00847715
0.00819573
0.00794742
0.00780015
0.00767171
0.00759294
0.00748138
0.00771942
0.00749283
0.00709166
0.00791045
0.00843224
0.277594
0.823663
1.73544
2.86967
3.14433
2.75661
4.44993
3.2566
2.58276
0.536212
0.0337351
0.00940821
0.00887417
0.00847272
0.00820302
0.00792355
0.00782493
0.00765342
0.00757031
0.00759498
0.00762643
0.00748001
0.00723163
0.00831415
0.0133188
0.579091
1.01105
2.6186
3.21764
4.01485
3.29729
5.36221
3.81155
3.08678
0.820847
0.118119
0.0094077
0.00887322
0.00847895
0.00818335
0.00794616
0.00779168
0.00765754
0.00752852
0.00765171
0.00747227
0.00697666
0.00749976
0.00822622
0.113881
0.760703
1.33943
3.28043
3.67824
4.3122
5.78386
4.63341
2.94094
1.48113
0.421729
0.0215659
0.00940789
0.0088742
0.00847432
0.0081862
0.00794793
0.00776461
0.00766635
0.00751212
0.00765003
0.00739562
0.0071445
0.0102992
0.0111626
0.203362
0.662003
1.76162
3.36271
4.21472
5.17535
6.68274
4.38093
2.01424
1.78983
0.446196
0.0177832
0.00940773
0.0088774
0.00847391
0.008206
0.00793435
0.00776722
0.00769782
0.00746461
0.00785122
0.00726999
0.00853402
0.0217401
0.0218153
0.25721
0.628793
1.77405
3.40271
5.26164
5.06689
4.18957
3.77407
1.37809
2.16762
0.186758
0.0026851
0.00940865
0.00887871
0.00847912
0.00822332
0.00792501
0.00779365
0.00773167
0.00751004
0.0079157
0.00737305
0.00811517
0.0142188
0.0181321
0.283894
0.553637
1.62753
3.68463
4.59285
2.93115
5.39044
2.90911
2.09832
0.733448
0.0731775
0.00794137
0.00940933
0.00887536
0.00852087
0.00818352
0.00799396
0.00777549