/*--------------------------------*- C++ -*----------------------------------*\
  =========                 |
  \\      /  F ield         | OpenFOAM: The Open Source CFD Toolbox
   \\    /   O peration     | Website:  https://openfoam.org
    \\  /    A nd           | Version:  11
     \\/     M anipulation  |
\*---------------------------------------------------------------------------*/
FoamFile
{
    format      ascii;
    class       volScalarField;
    location    "30";
    object      omega;
}
// * * * * * * * * * * * * * * * * * * * * * * * * * * * * * * * * * * * * * //

dimensions      [0 0 -1 0 0 0 0];

internalField   nonuniform List<scalar> 
17196
(
0.0215464
0.0202205
0.0191463
0.0182308
0.0174537
0.0167566
0.0161666
0.0156224
0.0151714
0.01469
0.0142847
0.0138064
0.0134681
0.0130947
0.0128474
0.0125633
0.0122607
0.0118612
0.0113181
0.0108632
0.010227
0.00995292
0.00794798
0.00670723
0.0128493
0.0109764
0.0106084
0.0103172
0.0100492
0.00984205
0.00959783
0.0094066
0.00918939
0.00902805
0.0088192
0.00860847
0.00837794
0.00817083
0.00795635
0.00775908
0.00757626
0.00736058
0.00716569
0.00689331
0.00671957
0.00650338
0.00637514
0.00593332
0.00520783
0.00734568
0.0109764
0.0106141
0.0103133
0.0100673
0.00984597
0.00962348
0.00942613
0.00925153
0.00907432
0.00889607
0.00868127
0.00847788
0.00825783
0.00806665
0.00786351
0.00770092
0.00750499
0.00729571
0.0070687
0.0068314
0.00684387
0.00676851
0.00651286
0.00487597
0.00747815
0.0109703
0.0106186
0.0103146
0.0100695
0.00984826
0.00963023
0.00943163
0.00925844
0.00907519
0.00889731
0.00869695
0.00849755
0.00830147
0.00809585
0.00790256
0.00773237
0.00754294
0.00738229
0.0071797
0.00696599
0.00706454
0.0068824
0.00669303
0.00585475
0.00651344
0.0109749
0.0106165
0.0103102
0.010068
0.00984429
0.0096278
0.00942916
0.00925601
0.00906597
0.00888578
0.00867653
0.00849804
0.00828148
0.00806101
0.00785469
0.00767226
0.00748062
0.00728796
0.00721004
0.00702598
0.0069951
0.00695851
0.0069762
0.00637535
0.00457594
0.0109701
0.010618
0.0103117
0.0100723
0.00984693
0.00964088
0.00943133
0.00926394
0.00906114
0.00887953
0.0086845
0.00850193
0.00826334
0.00805243
0.00784275
0.00768389
0.00752557
0.00736578
0.00730192
0.00716327
0.00711712
0.00698831
0.00666576
0.00686048
0.00543861
0.0109756
0.0106146
0.0103041
0.0100701
0.00983294
0.00964061
0.00942667
0.00924764
0.00905263
0.00886258
0.00865584
0.0084443
0.00820893
0.0080042
0.00779148
0.00764292
0.00749493
0.00737461
0.00730222
0.00715625
0.00712669
0.00701416
0.00668717
0.00621553
0.00644643
0.0109706
0.010616
0.0103129
0.0100688
0.00984617
0.00964207
0.00942609
0.00923774
0.00905211
0.0088663
0.00867961
0.00844554
0.00822471
0.00801378
0.00783684
0.00763616
0.00749664
0.00737511
0.00721637
0.00710537
0.00708981
0.00707456
0.00698402
0.00673386
0.00712839
0.0109804
0.0106089
0.0103139
0.0100563
0.00984206
0.0096182
0.00942813
0.00922946
0.00906751
0.00888049
0.00867213
0.00844077
0.00822006
0.0080196
0.0078262
0.00757056
0.00739424
0.00718902
0.00696507
0.0068619
0.0068559
0.00689526
0.00680479
0.00635118
0.00765264
0.0109761
0.0106077
0.0103148
0.0100681
0.00984005
0.00962937
0.00943056
0.00924173
0.00907541
0.00889201
0.00869078
0.00846651
0.00827502
0.00806769
0.00780402
0.00754347
0.00728315
0.0070155
0.00700702
0.00693983
0.00689441
0.006905
0.00702013
0.00740186
0.00863414
0.0109762
0.0106125
0.0102998
0.0100682
0.00982236
0.00961834
0.00941487
0.00924669
0.00907505
0.00889061
0.00870726
0.00848359
0.00830717
0.00804806
0.00776164
0.00746239
0.00715138
0.00698915
0.0068934
0.0069039
0.0068749
0.0068901
0.00712508
0.00821996
0.0103178
0.0109698
0.0106143
0.0103056
0.0100732
0.00983149
0.00962683
0.00942211
0.00925241
0.00906439
0.00890093
0.00870116
0.00851658
0.00835911
0.00804643
0.00772548
0.00740057
0.00709998
0.00692882
0.00696613
0.00692897
0.00691463
0.00707648
0.00750045
0.00861651
0.0107609
0.0109755
0.0106132
0.0102977
0.0100616
0.00982995
0.00962127
0.00940642
0.00923344
0.0090591
0.00888711
0.00870378
0.00851799
0.00830866
0.00796201
0.00764663
0.00722024
0.00718996
0.00712683
0.00701783
0.00701045
0.00708603
0.00727919
0.00791733
0.00923618
0.0109511
0.0109715
0.0106106
0.0103039
0.0100634
0.00983393
0.00962692
0.00941377
0.00923399
0.00905561
0.00887515
0.0086952
0.00849613
0.00821722
0.00796964
0.00751379
0.00709538
0.00718517
0.00714303
0.00720595
0.00730382
0.00741819
0.00765061
0.00810555
0.00974095
0.0112139
0.0109786
0.0106063
0.0102981
0.0100527
0.0098224
0.00961525
0.00939232
0.00918609
0.00901738
0.00882016
0.00864695
0.00834903
0.00813684
0.00774306
0.00726969
0.00708641
0.0070541
0.00729398
0.00751054
0.00767632
0.00782331
0.00799191
0.00962154
0.0125601
0.0144531
0.01098
0.0105983
0.0103049
0.010044
0.00983348
0.00960847
0.00939798
0.00917491
0.00894732
0.00871556
0.00848631
0.00815999
0.00792633
0.00752176
0.00707256
0.00707767
0.00709065
0.00743957
0.0078492
0.00814923
0.00844028
0.00873776
0.010504
0.0116749
0.0113791
0.0109878
0.010593
0.0103065
0.0100245
0.00983326
0.00958146
0.00939566
0.00914572
0.00887933
0.00860761
0.00835839
0.0080392
0.00779134
0.00731527
0.00706287
0.00700079
0.00711351
0.00754058
0.00823312
0.00864443
0.00933286
0.00932338
0.0107699
0.011181
0.011231
0.0109769
0.0106009
0.0102974
0.0100295
0.00983264
0.00958183
0.00939705
0.0091582
0.00886921
0.0086206
0.00832198
0.0080482
0.00776171
0.00721891
0.00703299
0.00698142
0.00716736
0.0075789
0.00844127
0.00935419
0.00974199
0.00970119
0.0103601
0.0109205
0.0112212
0.0109758
0.0106058
0.0102864
0.0100237
0.00981789
0.00957295
0.00937635
0.00914945
0.00886153
0.00863561
0.00830828
0.00808264
0.00770564
0.00715381
0.00698325
0.00691627
0.00709798
0.00764859
0.00845737
0.00943467
0.00959751
0.00945668
0.00987433
0.0107328
0.0112923
0.010969
0.0106106
0.0102767
0.010028
0.00980135
0.00957306
0.00935807
0.00911015
0.00887451
0.00866101
0.00835697
0.00807146
0.00762402
0.0070459
0.00691892
0.00681726
0.00697555
0.00769949
0.00831565
0.0088875
0.00896215
0.00894367
0.0097731
0.010582
0.0112041
0.0109688
0.0106135
0.0102794
0.0100272
0.00979744
0.00957574
0.00934941
0.00910035
0.00892692
0.00865157
0.00835447
0.00800736
0.0075493
0.00695254
0.00682298
0.0067969
0.00690757
0.00747605
0.00821189
0.00844712
0.00832462
0.00848387
0.00932432
0.0103087
0.0111464
0.0109647
0.0106183
0.0102644
0.0100004
0.00976556
0.00954141
0.00932789
0.00911376
0.00888636
0.00860118
0.00830028
0.0079213
0.00754376
0.00699243
0.00657126
0.00667629
0.00664594
0.00699686
0.00732662
0.00755189
0.00744655
0.00786242
0.00870431
0.00987408
0.0110146
0.0109613
0.0106207
0.0102511
0.00999088
0.00974804
0.00954353
0.00928896
0.00912067
0.00883436
0.0085982
0.00828627
0.00791616
0.00757487
0.00707818
0.00646977
0.00652518
0.00652325
0.0064887
0.00641395
0.00636188
0.0063805
0.00698166
0.00757576
0.00867236
0.01082
0.0109615
0.0106114
0.0102353
0.00997564
0.00972652
0.00950119
0.00925706
0.00904793
0.00877617
0.00852149
0.00815946
0.0078169
0.00728974
0.00681199
0.00637302
0.00610661
0.00597831
0.00581733
0.00596503
0.00579889
0.00605519
0.00710991
0.00766538
0.00853859
0.0106267
0.0215152
0.0202535
0.0191959
0.0183047
0.0175101
0.0167851
0.0160904
0.0154572
0.0147923
0.0141846
0.0134537
0.0128351
0.0119467
0.0113264
0.0105868
0.0100399
0.0103749
0.0102268
0.0103713
0.00955861
0.0132424
0.0161943
0.0176002
0.0175213
0.0213248
0.0216305
0.0204625
0.0195111
0.0187332
0.0180818
0.0175053
0.0169303
0.016486
0.0160384
0.0155921
0.0151137
0.0145515
0.0140119
0.0136182
0.0132883
0.0130761
0.0128752
0.012585
0.0125
0.0119111
0.0120579
0.0122393
0.0123917
0.0127579
0.0127368
0.338457
0.139853
0.080571
0.0548891
0.0411888
0.0328218
0.0271659
0.023154
0.020187
0.0179022
0.0160825
0.0146017
0.0133947
0.0124213
0.0116554
0.011133
0.0107209
0.0103979
0.0102165
0.010184
0.0101607
0.0115502
0.0118995
0.0125748
0.0164555
0.338767
0.139948
0.0807672
0.055252
0.041533
0.0330809
0.0274098
0.0233779
0.0203302
0.0179669
0.0160506
0.0145037
0.0132262
0.0121873
0.0113528
0.0107134
0.010166
0.00974964
0.00929901
0.00911431
0.00878282
0.0100489
0.0101741
0.0115376
0.0172734
0.338769
0.139918
0.0807505
0.0552524
0.0415527
0.0330975
0.0274291
0.0233746
0.0203155
0.0179304
0.0160367
0.0144947
0.0132196
0.0121649
0.0112933
0.0106209
0.0100596
0.00964413
0.00919783
0.00903891
0.00867393
0.00984575
0.0106053
0.0116294
0.0175128
0.338759
0.139944
0.0807565
0.0552524
0.0415354
0.0330727
0.0274013
0.0233306
0.0202742
0.0178789
0.0160094
0.0144532
0.0131689
0.0121169
0.0112441
0.0105912
0.0100405
0.00961313
0.00921005
0.00900715
0.00883469
0.00937999
0.0106663
0.011511
0.0155694
0.338766
0.139939
0.0807516
0.055241
0.0415277
0.0330784
0.0273999
0.0232998
0.0202368
0.0178708
0.0160188
0.0144449
0.0131506
0.0121017
0.011245
0.010599
0.0100254
0.00959497
0.00918705
0.00899652
0.00888643
0.00938595
0.00975201
0.0111702
0.015185
0.338752
0.139957
0.0807602
0.0552224
0.0415192
0.0330915
0.0273942
0.023309
0.0202344
0.0178768
0.0160043
0.0144198
0.0131147
0.0120468
0.0112262
0.0105709
0.0100277
0.00961966
0.00921746
0.00906071
0.00885215
0.00995599
0.0115975
0.00541235
0.0259474
0.338757
0.139928
0.0807582
0.0552195
0.0415313
0.0331043
0.0274312
0.0233093
0.0202697
0.0179167
0.0160051
0.014375
0.0130603
0.0119942
0.0112139
0.0105532
0.0100428
0.00963642
0.00926814
0.00909952
0.00885491
0.0101148
0.0130502
0.00673062
0.106433
0.338736
0.139921
0.080747
0.0552319
0.0415429
0.033142
0.0274167
0.0233171
0.0202625
0.0179073
0.0159257
0.0143108
0.0129787
0.0119522
0.0111843
0.0105271
0.0100224
0.00964204
0.00930564
0.00918309
0.00880982
0.0103936
0.0141362
0.0383235
0.309322
0.338735
0.139868
0.0807448
0.0552569
0.0415878
0.0331773
0.027467
0.0233673
0.0202582
0.0178773
0.0158587
0.0142573
0.0129802
0.0119389
0.0111545
0.0105141
0.0100113
0.00966698
0.00939708
0.0092359
0.009239
0.00970585
0.0149265
0.040649
0.351339
0.338708
0.139865
0.0807426
0.0552648
0.0415657
0.0332077
0.0274775
0.0233449
0.0202235
0.0177622
0.0158181
0.0142362
0.0129672
0.0119368
0.011125
0.0105111
0.0101112
0.00979343
0.00967212
0.0094215
0.00951944
0.0097638
0.0138743
0.0604107
0.119847
0.338705
0.139847
0.0807426
0.0552814
0.0416115
0.033221
0.0275028
0.0233361
0.0201911
0.0177403
0.0158277
0.0142485
0.0130094
0.0119325
0.0111179
0.0105316
0.0101802
0.00998604
0.00996739
0.00966945
0.0100311
0.00981132
0.0198551
0.0948223
0.0943634
0.338685
0.139853
0.0807425
0.0552719
0.0416018
0.0331927
0.0274804
0.023333
0.0201776
0.0177578
0.0158649
0.0141991
0.0130715
0.0119522
0.0111546
0.0107334
0.0100147
0.00977149
0.00997462
0.0101106
0.0105508
0.0110618
0.0294421
0.0656762
0.091332
0.338685
0.139813
0.0807347
0.0552872
0.0416337
0.0332186
0.0274931
0.023356
0.0202558
0.0177433
0.0159743
0.0141944
0.0132555
0.0120918
0.0110514
0.0107539
0.0100799
0.010151
0.0105124
0.010915
0.0112016
0.0173669
0.0307995
0.0804075
0.113901
0.338656
0.139748
0.080721
0.0552739
0.0415972
0.0332035
0.0275115
0.0234151
0.0203449
0.0178599
0.0160825
0.0143542
0.0134111
0.0120479
0.0112241
0.0109126
0.0102333
0.0104981
0.0108114
0.0118788
0.0118851
0.0373516
0.101014
0.158358
0.246266
0.338649
0.139668
0.0807022
0.0552746
0.0416261
0.0332279
0.0275558
0.0234992
0.020409
0.0180339
0.0160822
0.0144427
0.0133476
0.0120821
0.0110627
0.0110687
0.0107747
0.0110652
0.0115299
0.0129718
0.0157993
0.0428718
0.12682
0.12283
0.3449
0.338621
0.139625
0.0806889
0.05529
0.0416085
0.033267
0.0275484
0.0235969
0.0203284
0.0182095
0.0159774
0.0144999
0.0132228
0.0119082
0.0109347
0.0106227
0.0104384
0.0106601
0.0120614
0.0134925
0.0193939
0.0514278
0.104996
0.117907
0.2487
0.338608
0.139598
0.0806937
0.0553292
0.0416635
0.0333117
0.0275832
0.0236347
0.02036
0.0181783
0.0159809
0.0144211
0.0130624
0.0116804
0.0112137
0.0105156
0.0104176
0.0106393
0.01254
0.0128474
0.0241199
0.0568336
0.118125
0.0733156
0.263108
0.338569
0.13959
0.080693
0.0553886
0.0417814
0.0334076
0.0276815
0.0237049
0.0203954
0.0182611
0.0158915
0.0145108
0.012847
0.0115691
0.0108061
0.010792
0.0110058
0.0114226
0.0122674
0.0144167
0.0230979
0.0501268
0.0821531
0.0954227
0.206911
0.338536
0.139597
0.0807048
0.0554975
0.0418469
0.033502
0.0277868
0.0237824
0.0204988
0.0183582
0.0159529
0.0144567
0.0128333
0.0115725
0.0106813
0.010731
0.0110025
0.0114552
0.0123724
0.0137201
0.021732
0.0377462
0.0476662
0.0948213
0.142109
0.338511
0.13957
0.0806722
0.055517
0.0419065
0.033538
0.027801
0.0237203
0.020544
0.0180832
0.0158977
0.0141933
0.0127055
0.0115217
0.0106164
0.0105211
0.0108085
0.0111648
0.0117682
0.013055
0.0167033
0.0282965
0.0437901
0.075694
0.12109
0.338506
0.139638
0.0806874
0.0555182
0.0417968
0.0334017
0.0277373
0.0235739
0.0204738
0.017795
0.0159334
0.0140332
0.0128179
0.011598
0.0105809
0.0103127
0.0104653
0.0102293
0.0104275
0.0110189
0.0144313
0.0272958
0.0382866
0.0531769
0.109086
0.338518
0.139681
0.0806461
0.0554981
0.0416361
0.0332897
0.0276049
0.023527
0.0203901
0.0178597
0.0159413
0.014195
0.0128333
0.0120227
0.0110235
0.0105066
0.0100976
0.0101508
0.0103353
0.0113717
0.0121376
0.0345839
0.0391742
0.0510095
0.0869309
0.337828
0.139323
0.0804424
0.0554408
0.0414407
0.0329796
0.0272392
0.0230865
0.0199207
0.0175362
0.0156962
0.0144194
0.013543
0.0130854
0.0126633
0.0123052
0.0119765
0.011458
0.0126808
0.0137457
0.0199673
0.0592238
0.0419535
0.110486
0.269389
0.0216464
0.0204384
0.0194053
0.018729
0.0180205
0.0173308
0.0167339
0.0161676
0.0156238
0.0149891
0.0144707
0.0138522
0.0133588
0.0127012
0.0118755
0.0124387
0.0121517
0.0123523
0.0130112
0.0129356
0.0134429
0.0158398
0.0170309
0.0184842
0.0216925
0.0216317
0.0204553
0.0194935
0.0187017
0.0180112
0.0174085
0.0168319
0.0163785
0.0159178
0.0155063
0.01509
0.01469
0.0143503
0.0140827
0.0137753
0.0134562
0.0131218
0.0130523
0.0123143
0.0119443
0.0123085
0.0126399
0.0129569
0.0134957
0.0132245
0.338698
0.139745
0.0804855
0.0548313
0.0410919
0.0327009
0.0270835
0.0230882
0.0200946
0.0178016
0.0159844
0.0145525
0.013386
0.0124504
0.0116831
0.011264
0.0108472
0.0105834
0.0103617
0.0102455
0.0103831
0.01097
0.0113599
0.0117897
0.0112061
0.338971
0.139897
0.0806669
0.0551018
0.0414055
0.0329872
0.0273584
0.0233191
0.0203165
0.0179616
0.016088
0.0145446
0.0132616
0.012239
0.0114113
0.0107771
0.0102532
0.00981966
0.00938389
0.00923132
0.00913095
0.00977309
0.0100282
0.00967506
0.0120366
0.338976
0.139852
0.0806288
0.0550977
0.0413995
0.033005
0.027363
0.0233422
0.0203049
0.0179573
0.0160641
0.0145114
0.0132281
0.0122207
0.0113727
0.0107036
0.0101213
0.00974362
0.00932505
0.00917065
0.00895223
0.009629
0.0102207
0.0132458
0.00697613
0.338964
0.139855
0.0806216
0.055086
0.041391
0.0329828
0.0273644
0.0233261
0.020305
0.0179509
0.0160556
0.0145079
0.0132481
0.0122161
0.0113695
0.0107044
0.0101603
0.00972356
0.00940525
0.00921844
0.00898515
0.00967696
0.00966923
0.0120856
0.0501116
0.338965
0.139803
0.0806035
0.0550842
0.041398
0.0330004
0.0273806
0.0233528
0.0203371
0.017978
0.0160862
0.0145382
0.0132717
0.0122366
0.0113935
0.0107472
0.0101955
0.00978355
0.00944367
0.0092853
0.0090452
0.00959377
0.00940564
0.0113635
0.229477
0.338945
0.139782
0.0806089
0.0550721
0.0414107
0.0330166
0.0273822
0.0233386
0.0202948
0.0179356
0.0160306
0.0144914
0.0132064
0.0121774
0.011356
0.0106913
0.0101828
0.00980739
0.00951256
0.00937675
0.00929017
0.00964856
0.0101849
0.0541454
0.500122
0.338949
0.139735
0.0806011
0.0550758
0.0414206
0.0330417
0.0273974
0.0233489
0.0202974
0.0179403
0.0160194
0.0144954
0.0131611
0.0121471
0.0113367
0.0106891
0.0102129
0.00992343
0.00968051
0.00944026
0.00961737
0.0100905
0.00961121
0.0743688
0.677274
0.338942
0.139756
0.080602
0.0550886
0.041435
0.0330446
0.0273889
0.0233365
0.0202706
0.0179255
0.015998
0.0144435
0.0131135
0.0121283
0.0113067
0.0106814
0.0102143
0.00996249
0.00980199
0.00957296
0.0098807
0.0103978
0.00961416
0.102676
0.654215
0.338963
0.139746
0.08061
0.0551065
0.0414515
0.0330672
0.0274007
0.0233548
0.0202747
0.0179509
0.0159488
0.0144665
0.0130674
0.012159
0.0112918
0.0106027
0.0102251
0.010005
0.0100079
0.00983699
0.00998265
0.0110845
0.0199658
0.146282
0.550092
0.338963
0.139801
0.0806265
0.0551228
0.04146
0.0330817
0.0273685
0.0233641
0.0202116
0.0179554
0.0158947
0.0144548
0.0130234
0.0120948
0.0112373
0.0104495
0.00989911
0.00989745
0.0100349
0.0101336
0.010262
0.0130308
0.0106774
0.16397
0.506285
0.338992
0.139826
0.0806596
0.0551581
0.0414847
0.0330939
0.0273787
0.0233917
0.0201864
0.0180225
0.0158552
0.0144353
0.0130582
0.012091
0.0109945
0.0106206
0.0099973
0.0102569
0.0103256
0.010808
0.0111907
0.016651
0.0538193
0.164002
0.354973
0.338979
0.139825
0.0806531
0.0551697
0.0414988
0.0330794
0.0273746
0.0233727
0.0201876
0.0180094
0.0158774
0.0144503
0.0131673
0.0119004
0.0109027
0.0106005
0.0109133
0.0107418
0.0111392
0.0117599
0.012766
0.0318958
0.0659691
0.155749
0.308739
0.339
0.139805
0.0806434
0.0552174
0.0415289
0.0331144
0.027419
0.0233516
0.0202402
0.0179306
0.0158792
0.014425
0.0130852
0.0118219
0.0108483
0.0109424
0.0116063
0.011438
0.0119998
0.0128557
0.0199823
0.0379217
0.0703582
0.144107
0.308383
0.338989
0.139796
0.0806377
0.0552117
0.0415718
0.0331171
0.027458
0.0233591
0.0202647
0.0179558
0.015805
0.0145121
0.0130629
0.0116882
0.0113864
0.0112722
0.0119212
0.0121018
0.013017
0.0154092
0.0192468
0.0462656
0.140481
0.328668
0.731204
0.338992
0.139687
0.0805722
0.0551959
0.0416183
0.0331551
0.0275124
0.0233556
0.0203322
0.0179013
0.0158265
0.0144379
0.0130348
0.0116574
0.0114381
0.0112732
0.0117788
0.0126217
0.0139206
0.0169802
0.0201306
0.0546442
0.159479
0.256253
0.716738
0.33897
0.139643
0.0805413
0.0552093
0.0416563
0.0331847
0.0275603
0.0233774
0.0203786
0.0179017
0.0159168
0.0144824
0.0129258
0.0120635
0.0112
0.01107
0.0114524
0.0130835
0.01377
0.018348
0.020555
0.0542239
0.143165
0.147734
0.549665
0.338971
0.139578
0.0805119
0.0552038
0.0416885
0.0332188
0.027658
0.0234146
0.0204542
0.0179193
0.0159478
0.0145081
0.0129464
0.0121881
0.0112714
0.0110888
0.0117865
0.013138
0.0144058
0.018411
0.0247552
0.0600187
0.112078
0.107938
0.62542
0.338939
0.139508
0.0804753
0.0552307
0.0416586
0.0332395
0.0276015
0.0234687
0.0203656
0.0179841
0.0158614
0.0145174
0.0128841
0.0121671
0.011269
0.0111902
0.0118673
0.0133932
0.0148078
0.0185835
0.0267054
0.0632873
0.073706
0.129739
0.487719
0.338932
0.139483
0.0804404
0.0552026
0.0416276
0.0332398
0.0276001
0.023531
0.0203002
0.0181414
0.0158251
0.0145857
0.013037
0.0118578
0.0114124
0.0111684
0.0116656
0.0132536
0.0153131
0.0168108
0.0279242
0.0516307
0.0823826
0.145686
0.222668
0.338943
0.139551
0.080455
0.0551642
0.0416629
0.0333167
0.0276861
0.0235926
0.0203437
0.0181176
0.0158475
0.014543
0.0130965
0.0117835
0.0113818
0.0111325
0.0116175
0.0130756
0.0158904
0.0166882
0.0266613
0.0461134
0.054829
0.100662
0.168381
0.338983
0.139681
0.0804621
0.0550554
0.0415529
0.0333329
0.0276447
0.0236235
0.0203387
0.0181313
0.0158551
0.0145481
0.0131376
0.0118199
0.0114062
0.0114918
0.0120913
0.0128622
0.0152563
0.0166782
0.0227634
0.0395822
0.0404278
0.0781793
0.0982375
0.338984
0.139686
0.0804718
0.055015
0.041488
0.0333067
0.0275868
0.0236324
0.0203064
0.0182129
0.015893
0.0146763
0.0132477
0.0121202
0.0112764
0.0111229
0.0111032
0.0119958
0.0136647
0.0144726
0.0197996
0.0410887
0.0448871
0.088664
0.101853
0.33818
0.139239
0.0803396
0.0550465
0.0415497
0.0333466
0.0276456
0.0233987
0.0201844
0.0178601
0.0159681
0.0147194
0.0133653
0.0126759
0.0119484
0.0113181
0.0116371
0.0121561
0.0129675
0.0139552
0.0148208
0.0378336
0.0527117
0.0668966
0.0671954
0.021631
0.0204482
0.0193258
0.0186086
0.0178713
0.0172156
0.0167624
0.016105
0.01542
0.0146822
0.0139689
0.013235
0.0127026
0.0117527
0.0120472
0.0120029
0.0124651
0.0141748
0.0157942
0.0155895
0.0154091
0.015263
0.0176649
0.0190276
0.0204995
0.0216357
0.0204465
0.0195033
0.0186892
0.0180314
0.0174325
0.0169153
0.0164226
0.0160135
0.015563
0.0150171
0.0145166
0.0140309
0.0136367
0.0133066
0.0130411
0.0127426
0.0127013
0.0120321
0.0121908
0.0122779
0.0127559
0.0128152
0.0139618
0.013685
0.338676
0.139716
0.080489
0.0547989
0.0410433
0.0327431
0.0271528
0.0231211
0.0201556
0.0178435
0.0160542
0.0145562
0.0134026
0.0124614
0.0117483
0.0112443
0.0108298
0.0105771
0.0103061
0.0104304
0.0106676
0.0118909
0.0123871
0.0134939
0.0108581
0.338969
0.139902
0.080672
0.0551362
0.0414648
0.0331041
0.0274547
0.0234137
0.0203584
0.018005
0.0160963
0.014576
0.0132999
0.0122938
0.0114795
0.0108479
0.010357
0.00990226
0.00952047
0.00929564
0.00981841
0.0097548
0.0143997
0.0094468
0.0147575
0.338973
0.139856
0.0806461
0.0551136
0.0414609
0.0331143
0.0274771
0.0234254
0.0203516
0.0180057
0.0160627
0.014551
0.0132716
0.0122674
0.0114171
0.0107617
0.0101794
0.00979031
0.00947725
0.00915597
0.00968448
0.00905996
0.0114319
0.0204355
0.121637
0.338948
0.139819
0.0806402
0.0551045
0.041474
0.0331076
0.0274697
0.0233756
0.0203251
0.0179575
0.0160519
0.0145093
0.0132387
0.0122126
0.0113847
0.0107257
0.0101884
0.00977471
0.00951233
0.00931735
0.00956348
0.00936088
0.00960943
0.0326731
0.33668
0.338948
0.139764
0.0806271
0.0551067
0.0415071
0.033121
0.0274845
0.0233684
0.0203498
0.0179591
0.0160643
0.0144944
0.0132339
0.0122209
0.011386
0.0107604
0.0102422
0.00985341
0.00956375
0.00944268
0.00959241
0.00932853
0.00855144
0.0716806
0.605962
0.338946
0.139802
0.0806348
0.0551224
0.0415001
0.0331234
0.0274491
0.023384
0.0203138
0.017949
0.0160064
0.0144764
0.0131785
0.0121793
0.01136
0.0107151
0.0102534
0.00993563
0.0096602
0.00967533
0.0096703
0.00979849
0.0109589
0.107612
0.821553
0.338972
0.139808
0.0806223
0.0551478
0.041517
0.0331389
0.0274662
0.0233941
0.0203289
0.0179555
0.0160096
0.0144782
0.013149
0.0121793
0.0113432
0.0107035
0.010288
0.0100409
0.00984626
0.00978746
0.0102309
0.0100155
0.0137854
0.153815
0.771852
0.338963
0.139806
0.0806063
0.0551576
0.0415139
0.0331457
0.0274387
0.0234165
0.0202962
0.0179809
0.0159872
0.014504
0.0131539
0.0121976
0.0113238
0.0106816
0.0102703
0.0102145
0.0101854
0.0103416
0.0107415
0.0110758
0.0234036
0.242246
0.856918
0.338966
0.139743
0.0805765
0.0551568
0.041516
0.0331672
0.0274425
0.0234837
0.0202699
0.0180959
0.0159092
0.0145683
0.0130643
0.0122397
0.0111831
0.0106838
0.0100302
0.0100657
0.0103744
0.010688
0.011614
0.0138854
0.0266668
0.196882
0.914208
0.338936
0.139679
0.080539
0.0551224
0.0415208
0.0331552
0.027469
0.0234495
0.0202648
0.0180747
0.0158767
0.0145455
0.0130774
0.0121308
0.0111239
0.010412
0.0102892
0.0107503
0.0111039
0.0115696
0.0129876
0.0182168
0.107488
0.215065
0.870936
0.33893
0.139569
0.0804919
0.055093
0.0415467
0.033163
0.0275187
0.0234593
0.0202975
0.018026
0.0159015
0.0145078
0.0132163
0.0119096
0.0109944
0.0109448
0.011227
0.0118996
0.0121064
0.0134154
0.0139865
0.0308758
0.134754
0.230049
0.771061
0.338904
0.139526
0.0804824
0.055098
0.041574
0.0331425
0.0275533
0.023413
0.0203418
0.018019
0.015822
0.0146059
0.0130498
0.0116982
0.011375
0.0115589
0.0121783
0.012807
0.0139186
0.0150019
0.0182207
0.0394193
0.138502
0.303935
0.767962
0.338913
0.139454
0.0804435
0.0551045
0.0415867
0.0331407
0.0276113
0.0233875
0.0204645
0.0180146
0.0158651
0.0145915
0.0129403
0.0116728
0.0115745
0.0119048
0.0127009
0.0133446
0.0144977
0.0159773
0.0194674
0.0414306
0.108204
0.333451
0.597052
0.338911
0.139511
0.0804691
0.0551278
0.0415679
0.0331589
0.0275819
0.0234056
0.0204484
0.0179721
0.0159137
0.0145669
0.0128798
0.0115986
0.0115009
0.0121891
0.0120655
0.0124062
0.0140599
0.0167706
0.0194036
0.0400075
0.0947304
0.265026
0.550064
0.338934
0.139474
0.0804433
0.0551217
0.0415935
0.0331744
0.0275877
0.0234269
0.020499
0.0179606
0.0160152
0.0145728
0.0129155
0.0116262
0.0113224
0.011326
0.0114725
0.0125046
0.0137524
0.0178739
0.0214401
0.0405283
0.0877732
0.287668
0.466143
0.338909
0.139426
0.0804031
0.0551096
0.0415886
0.0331983
0.0276047
0.0234632
0.020473
0.0179757
0.0159734
0.0145658
0.0128293
0.0121292
0.0112981
0.011861
0.0124657
0.0138087
0.0136648
0.0175662
0.0247888
0.0469873
0.0838572
0.323822
0.632438
0.338919
0.1394
0.0803655
0.0550743
0.0416417
0.0332014
0.0276523
0.023507
0.0204882
0.0180177
0.0159818
0.0145773
0.0129342
0.0121846
0.0113082
0.0118064
0.012019
0.0123847
0.0133885
0.0157873
0.0212472
0.0526474
0.101091
0.328829
0.521502
0.338895
0.139385
0.0802951
0.0550372
0.0415817
0.0331745
0.027692
0.0235691
0.0206052
0.018059
0.0160857
0.014589
0.0127796
0.0122654
0.0114069
0.0119788
0.012839
0.0130933
0.0143018
0.017225
0.0208552
0.0652169
0.119792
0.293212
0.500483
0.338909
0.139444
0.0802768
0.0549885
0.0414608
0.0331415
0.0276809
0.0235169
0.0205608
0.0179404
0.0159683
0.0145237
0.0127483
0.012187
0.011377
0.0118948
0.0134
0.013642
0.0163393
0.0177459
0.0237459
0.0563198
0.0934747
0.286633
0.434645
0.338974
0.139714
0.0803669
0.0549321
0.0414046
0.0331668
0.027675
0.0235272
0.0204742
0.0179179
0.0158994
0.0144416
0.0128627
0.0118168
0.0114546
0.0120572
0.0133964
0.01417
0.0163333
0.0185927
0.0263246
0.0435422
0.0813722
0.225844
0.300667
0.339084
0.140105
0.0806315
0.0550168
0.0414272
0.033185
0.0277123
0.0235466
0.0204769
0.01792
0.0158958
0.0144552
0.0130168
0.011798
0.0120875
0.0115601
0.0130747
0.0150943
0.0179561
0.0189198
0.0245237
0.0493955
0.0695871
0.158383
0.209358
0.339053
0.14003
0.0806484
0.0550168
0.0414243
0.0331502
0.027576
0.0235628
0.0203272
0.0180393
0.015879
0.0147393
0.0133277
0.0119854
0.012133
0.0114948
0.0120682
0.0148085
0.0173211
0.0192158
0.0231777
0.0526012
0.0635664
0.113604
0.141539
0.337927
0.139235
0.0803576
0.0550126
0.0415695
0.0331583
0.0278419
0.0235589
0.0202815
0.017684
0.015744
0.0145486
0.0133474
0.0123752
0.0116799
0.0119025
0.0125475
0.0138801
0.0161825
0.0183654
0.0169922
0.0617915
0.0638623
0.0797032
0.115816
0.0216466
0.0204158
0.0193594
0.0184729
0.018002
0.0169406
0.0164259
0.015908
0.0155127
0.0145857
0.0138098
0.0130994
0.011997
0.0110168
0.0117797
0.0135211
0.016037
0.0199955
0.0242876
0.022681
0.0233614
0.0205525
0.0195928
0.0187474
0.0202661
0.021648
0.0204312
0.0195223
0.0186725
0.0180424
0.0173802
0.0168355
0.016258
0.0158442
0.0154447
0.014979
0.0145585
0.0141751
0.0138582
0.0135167
0.0133664
0.0131574
0.0131727
0.0125031
0.0126279
0.0123985
0.0130764
0.0131893
0.0146173
0.0143268
0.338664
0.139809
0.0805389
0.0546655
0.0409498
0.0326581
0.0270947
0.0230046
0.0199961
0.0177186
0.0160212
0.0144688
0.013496
0.0124851
0.0118372
0.0112486
0.010778
0.0105868
0.0103618
0.0106826
0.0110426
0.0161763
0.0207272
0.0157663
0.0183639
0.338994
0.140007
0.0807181
0.0551062
0.0413635
0.0329608
0.0273008
0.023273
0.0202389
0.0178976
0.0160249
0.0144982
0.0132711
0.0122848
0.011497
0.0108636
0.0103667
0.0100511
0.00959678
0.00998652
0.00961753
0.0125012
0.0180131
0.0127768
0.00915503
0.338987
0.13993
0.0806797
0.0550476
0.0413507
0.0329562
0.0273429
0.0232948
0.0202514
0.0179411
0.0160222
0.0145643
0.0132846
0.0122923
0.0114823
0.010829
0.0103131
0.00992955
0.00952732
0.00973836
0.00931667
0.0104089
0.0136887
0.0297655
0.404579
0.33897
0.139921
0.0806689
0.0550284
0.0413641
0.0329785
0.027334
0.0232551
0.0202196
0.0178792
0.015971
0.0144629
0.0131951
0.0122076
0.0113899
0.0107455
0.010197
0.00990138
0.00960588
0.00993904
0.00948634
0.00954799
0.0119361
0.0605547
0.515555
0.338992
0.139926
0.0806631
0.0550437
0.0413809
0.0329946
0.0273154
0.0232523
0.0202202
0.0178599
0.0159818
0.0144265
0.0131781
0.0121679
0.0113382
0.0107314
0.0102734
0.0100216
0.00980335
0.0100296
0.0096959
0.00956492
0.0126816
0.0922333
0.503705
0.339005
0.139999
0.0806722
0.0550747
0.0414012
0.0329905
0.0273272
0.023258
0.0202311
0.0178381
0.0159556
0.0143905
0.0131571
0.0121554
0.0113567
0.0106946
0.0103003
0.0101315
0.00989332
0.0105934
0.0102929
0.010379
0.018745
0.127483
0.522678
0.339027
0.139977
0.0806498
0.0551244
0.0414328
0.0330194
0.0273579
0.0232864
0.0202653
0.0178334
0.0159882
0.0144165
0.0131413
0.012177
0.0113196
0.0107409
0.0103106
0.0101341
0.0102844
0.0106462
0.0108331
0.012106
0.0247035
0.106826
0.570741
0.338997
0.139934
0.0806468
0.0551513
0.041444
0.0330216
0.0273435
0.0232631
0.020198
0.0178079
0.0159268
0.0143357
0.0131242
0.0121482
0.0113132
0.0104446
0.0102172
0.0101463
0.010491
0.011465
0.0117954
0.0139681
0.0334264
0.249224
0.712135
0.33901
0.139904
0.080664
0.0551809
0.0414724
0.0330299
0.0273447
0.0232711
0.020167
0.0178705
0.0158966
0.0143019
0.0132033
0.0120096
0.0111797
0.0103658
0.0102988
0.010732
0.0113789
0.0127531
0.0141914
0.0180799
0.0548143
0.222393
0.46779
0.339002
0.139958
0.0807028
0.0551692
0.0415091
0.0330117
0.0273811
0.0232051
0.0201922
0.0177989
0.0158026
0.0143853
0.0131251
0.0117327
0.0112449
0.0104711
0.0105903
0.0114088
0.0126426
0.0140686
0.0167634
0.0250351
0.0860036
0.25186
0.499328
0.339027
0.139959
0.0807154
0.0551761
0.0415511
0.0330339
0.0274527
0.0232065
0.0202788
0.0177774
0.0157877
0.0144237
0.0129814
0.0116011
0.011417
0.0113856
0.0118966
0.0127912
0.013901
0.015476
0.0188364
0.0314012
0.087427
0.333247
0.612608
0.339006
0.139942
0.0807038
0.0551936
0.0415644
0.033071
0.02743
0.0231984
0.02027
0.0177335
0.0158654
0.0143707
0.0128428
0.0115755
0.0118071
0.0112069
0.012325
0.0130555
0.0144125
0.016338
0.0226077
0.0331966
0.0889167
0.278313
0.895617
0.339008
0.13983
0.0806305
0.0551815
0.0415679
0.0331258
0.0274794
0.0232673
0.0203346
0.0177505
0.0159285
0.0143329
0.0128153
0.0115915
0.0113386
0.0118856
0.0124434
0.012815
0.0145043
0.0164168
0.0255768
0.0404362
0.110567
0.346613
0.799903
0.338979
0.139768
0.0806075
0.0551913
0.0415999
0.033135
0.0274537
0.023276
0.0203069
0.0177046
0.0159028
0.0143001
0.0127306
0.0116642
0.0115208
0.012081
0.0118892
0.012356
0.0145251
0.0172957
0.0263444
0.0374335
0.100681
0.233452
0.731861
0.338962
0.139618
0.0805235
0.0551703
0.0415823
0.0331471
0.0274605
0.0232767
0.0203318
0.0176944
0.016023
0.0141912
0.0127118
0.0116211
0.0113649
0.0120997
0.0118617
0.0125676
0.0147775
0.0165701
0.0268089
0.0528172
0.0899968
0.226915
0.582421
0.338912
0.139471
0.0804513
0.0551482
0.0415941
0.0331271
0.0274377
0.0232879
0.0203667
0.0177126
0.0160144
0.0142519
0.0126283
0.0120967
0.0124402
0.0119541
0.0119933
0.0134592
0.0142837
0.0176851
0.0256709
0.051947
0.081139
0.320103
0.745463
0.338916
0.139486
0.0804137
0.0550954
0.0415079
0.033064
0.027425
0.0233709
0.0204378
0.0178116
0.0160416