/*--------------------------------*- C++ -*----------------------------------*\
  =========                 |
  \\      /  F ield         | OpenFOAM: The Open Source CFD Toolbox
   \\    /   O peration     | Website:  https://openfoam.org
    \\  /    A nd           | Version:  11
     \\/     M anipulation  |
\*---------------------------------------------------------------------------*/
FoamFile
{
    format      ascii;
    class       volScalarField;
    location    "30";
    object      p;
}
// * * * * * * * * * * * * * * * * * * * * * * * * * * * * * * * * * * * * * //

dimensions      [0 2 -2 0 0 0 0];

internalField   nonuniform List<scalar> 
17196
(
-0.21799
-0.218732
-0.229448
-0.241211
-0.230789
-0.231891
-0.26723
-0.327071
-0.384617
-0.421974
-0.425695
-0.394702
-0.408352
-0.484661
-0.5576
-0.593644
-0.580706
-0.568855
-0.562501
-0.519022
-0.449259
-0.366708
-0.258301
-0.149366
-0.0502194
-0.219081
-0.220415
-0.229702
-0.237891
-0.234315
-0.231371
-0.258857
-0.325249
-0.392322
-0.433692
-0.449695
-0.419594
-0.403005
-0.443266
-0.519157
-0.583204
-0.60246
-0.596534
-0.591882
-0.530623
-0.451995
-0.372842
-0.266961
-0.15452
-0.0497157
-0.219651
-0.221252
-0.227348
-0.235929
-0.239698
-0.23201
-0.248072
-0.319065
-0.395782
-0.446117
-0.464369
-0.434978
-0.415564
-0.429276
-0.493883
-0.565507
-0.611644
-0.633163
-0.631435
-0.561621
-0.465646
-0.375466
-0.272529
-0.158509
-0.0487089
-0.220061
-0.221108
-0.227504
-0.239069
-0.243354
-0.238895
-0.246526
-0.301288
-0.380991
-0.45339
-0.475058
-0.449158
-0.444581
-0.459651
-0.50134
-0.553687
-0.602381
-0.646105
-0.652555
-0.596567
-0.497392
-0.396195
-0.289676
-0.166252
-0.0482662
-0.22046
-0.220962
-0.230418
-0.240549
-0.239958
-0.248391
-0.258874
-0.280666
-0.350913
-0.4557
-0.495841
-0.468975
-0.450022
-0.494565
-0.540292
-0.566968
-0.596404
-0.644667
-0.658886
-0.619643
-0.535996
-0.434914
-0.321993
-0.192215
-0.0548229
-0.22088
-0.22135
-0.233138
-0.237913
-0.231331
-0.256724
-0.27936
-0.273842
-0.325098
-0.454393
-0.519606
-0.4937
-0.443304
-0.502086
-0.573983
-0.600239
-0.613166
-0.652984
-0.670105
-0.638853
-0.571016
-0.477583
-0.362748
-0.231223
-0.0675438
-0.221345
-0.22193
-0.235643
-0.235047
-0.22068
-0.262589
-0.297531
-0.280946
-0.317798
-0.453086
-0.529025
-0.509673
-0.451848
-0.496615
-0.582144
-0.632418
-0.654696
-0.68326
-0.692891
-0.659667
-0.597639
-0.517384
-0.409163
-0.270373
-0.0835441
-0.221781
-0.222149
-0.237579
-0.233942
-0.212153
-0.26651
-0.307625
-0.2894
-0.328376
-0.455288
-0.520788
-0.507432
-0.478169
-0.505761
-0.581144
-0.657011
-0.705327
-0.724785
-0.719142
-0.685708
-0.625375
-0.550418
-0.455571
-0.314143
-0.102014
-0.22225
-0.222315
-0.238802
-0.233455
-0.211104
-0.27049
-0.309814
-0.291781
-0.346141
-0.458281
-0.505521
-0.500121
-0.509899
-0.530236
-0.58856
-0.678641
-0.744798
-0.758974
-0.744871
-0.718043
-0.664865
-0.589415
-0.499763
-0.356688
-0.120181
-0.222721
-0.222812
-0.240596
-0.231992
-0.215799
-0.276373
-0.306629
-0.288656
-0.357855
-0.456748
-0.495698
-0.50395
-0.539125
-0.55948
-0.61068
-0.699119
-0.765431
-0.779341
-0.769861
-0.745199
-0.696587
-0.631546
-0.548096
-0.401627
-0.14081
-0.223229
-0.223033
-0.242874
-0.230974
-0.218978
-0.282582
-0.30286
-0.284521
-0.360552
-0.453685
-0.497152
-0.519103
-0.559852
-0.58611
-0.6406
-0.713597
-0.775234
-0.800601
-0.795141
-0.75867
-0.700951
-0.65026
-0.595531
-0.462097
-0.170706
-0.223704
-0.223564
-0.245765
-0.231248
-0.219363
-0.286423
-0.301749
-0.282958
-0.358461
-0.45464
-0.509582
-0.5407
-0.572047
-0.605747
-0.667374
-0.726643
-0.788175
-0.828989
-0.822392
-0.757477
-0.670367
-0.622975
-0.619748
-0.536817
-0.217115
-0.224145
-0.223804
-0.247627
-0.234739
-0.220637
-0.281681
-0.301791
-0.284044
-0.353883
-0.458177
-0.526417
-0.562724
-0.579403
-0.616469
-0.677049
-0.741667
-0.810434
-0.855384
-0.840618
-0.749115
-0.622952
-0.556527
-0.604187
-0.625443
-0.284017
-0.224447
-0.224049
-0.248763
-0.241225
-0.227145
-0.272671
-0.302619
-0.287636
-0.347147
-0.460543
-0.54425
-0.584037
-0.590298
-0.620067
-0.677146
-0.759797
-0.837767
-0.872213
-0.84087
-0.731231
-0.570879
-0.462977
-0.544626
-0.705935
-0.344342
-0.22467
-0.22386
-0.246598
-0.24559
-0.239389
-0.266916
-0.300383
-0.293194
-0.337491
-0.455213
-0.557616
-0.602572
-0.605955
-0.625156
-0.677842
-0.774427
-0.857116
-0.874429
-0.822652
-0.702203
-0.523094
-0.373019
-0.455984
-0.761042
-0.356274
-0.224786
-0.223867
-0.245195
-0.246914
-0.248878
-0.265873
-0.302387
-0.307021
-0.333447
-0.443291
-0.560656
-0.615519
-0.62703
-0.638192
-0.686607
-0.784434
-0.862999
-0.864436
-0.79332
-0.663843
-0.483007
-0.313423
-0.362341
-0.758408
-0.286964
-0.224875
-0.223514
-0.244793
-0.248958
-0.250613
-0.262859
-0.305127
-0.322001
-0.33809
-0.430383
-0.551691
-0.618068
-0.643476
-0.654258
-0.701455
-0.791206
-0.857818
-0.848972
-0.763093
-0.617037
-0.438248
-0.282446
-0.280669
-0.634163
-0.0371502
-0.224901
-0.223049
-0.245394
-0.253677
-0.245935
-0.266249
-0.314667
-0.336755
-0.349518
-0.423485
-0.535651
-0.611768
-0.647002
-0.665289
-0.717648
-0.797587
-0.84932
-0.831762
-0.736248
-0.572017
-0.385225
-0.245155
-0.227741
-0.542407
-0.0381059
-0.224923
-0.221986
-0.245617
-0.254282
-0.237332
-0.278985
-0.332468
-0.350696
-0.363118
-0.422447
-0.518491
-0.599708
-0.63775
-0.666254
-0.728837
-0.800473
-0.83716
-0.810525
-0.712057
-0.538897
-0.334412
-0.193162
-0.185422
-0.484211
-0.1711
-0.224962
-0.22104
-0.244391
-0.251481
-0.235357
-0.289028
-0.343465
-0.359187
-0.378045
-0.430026
-0.512011
-0.59051
-0.625697
-0.664586
-0.736889
-0.799598
-0.821487
-0.787502
-0.690587
-0.515534
-0.290392
-0.138379
-0.170215
-0.467483
-0.280328
-0.225135
-0.22151
-0.24254
-0.246916
-0.241272
-0.294374
-0.345803
-0.363513
-0.391035
-0.439633
-0.512517
-0.580299
-0.61605
-0.665502
-0.742076
-0.792605
-0.801818
-0.763962
-0.669967
-0.495585
-0.256114
-0.0955233
-0.166795
-0.485608
-0.379555
-0.225357
-0.223358
-0.24217
-0.238446
-0.242818
-0.293557
-0.348801
-0.374501
-0.401316
-0.446115
-0.513845
-0.579873
-0.616094
-0.66796
-0.73944
-0.779364
-0.781442
-0.740106
-0.645752
-0.470018
-0.223739
-0.0589209
-0.159557
-0.525148
-0.52254
-0.225312
-0.224666
-0.250735
-0.242151
-0.240446
-0.285501
-0.342533
-0.377811
-0.403325
-0.449978
-0.519556
-0.588242
-0.625997
-0.67285
-0.735198
-0.770158
-0.765799
-0.720596
-0.621387
-0.441121
-0.189389
-0.0206088
-0.138228
-0.587876
-0.715209
-0.225035
-0.221831
-0.254108
-0.256829
-0.24959
-0.278214
-0.326972
-0.368567
-0.400322
-0.450954
-0.521538
-0.595695
-0.638658
-0.679746
-0.732364
-0.761435
-0.745326
-0.697269
-0.595302
-0.414479
-0.175006
0.00996777
-0.0758459
-0.666104
-1.06957
-0.22488
-0.221551
-0.245232
-0.261485
-0.262351
-0.281654
-0.322941
-0.365791
-0.4028
-0.453331
-0.520957
-0.599272
-0.650192
-0.686601
-0.729216
-0.746035
-0.716421
-0.656325
-0.552413
-0.394229
-0.186389
0.0188181
0.00469967
-0.825896
-2.04671
-0.220013
-0.224752
-0.236455
-0.239101
-0.223564
-0.236131
-0.297498
-0.351601
-0.366728
-0.373446
-0.359821
-0.369759
-0.455909
-0.528425
-0.575612
-0.604722
-0.60915
-0.591264
-0.553679
-0.499862
-0.447354
-0.382617
-0.279173
-0.155288
-0.0541516
-0.221268
-0.227865
-0.240374
-0.237056
-0.216691
-0.222642
-0.29066
-0.359314
-0.382702
-0.391673
-0.385522
-0.383158
-0.440943
-0.493822
-0.553017
-0.600105
-0.621073
-0.625363
-0.585304
-0.507277
-0.447219
-0.388005
-0.28894
-0.168594
-0.056604
-0.221824
-0.22736
-0.241804
-0.235474
-0.216371
-0.222915
-0.280545
-0.351753
-0.386002
-0.396197
-0.397963
-0.404832
-0.451015
-0.490979
-0.5421
-0.581821
-0.61661
-0.656396
-0.630309
-0.541724
-0.464929
-0.402131
-0.301391
-0.175441
-0.0553336
-0.222297
-0.227476
-0.243925
-0.235745
-0.220163
-0.22934
-0.27307
-0.338777
-0.379777
-0.395082
-0.41045
-0.429446
-0.478002
-0.523634
-0.546275
-0.564977
-0.60329
-0.658672
-0.658146
-0.588929
-0.506739
-0.431801
-0.329333
-0.193045
-0.0524683
-0.222849
-0.228576
-0.244426
-0.231892
-0.21841
-0.232365
-0.27774
-0.337379
-0.371015
-0.386241
-0.420129
-0.454971
-0.489409
-0.543331
-0.567883
-0.57784
-0.60052
-0.649942
-0.675934
-0.632667
-0.55354
-0.469789
-0.366691
-0.226273
-0.0536493
-0.223432
-0.229616
-0.245739
-0.224397
-0.212872
-0.24376
-0.297591
-0.338516
-0.349754
-0.371876
-0.427366
-0.484644
-0.502027
-0.552383
-0.598371
-0.613105
-0.613769
-0.652461
-0.696084
-0.669501
-0.598348
-0.51718
-0.411548
-0.265868
-0.0717643
-0.224055
-0.230554
-0.248438
-0.217263
-0.205613
-0.261818
-0.321086
-0.327803
-0.316818
-0.364275
-0.44231
-0.5122
-0.52862
-0.557261
-0.617491
-0.648092
-0.643482
-0.671323
-0.718709
-0.708759
-0.646414
-0.568871
-0.46338
-0.311143
-0.099065
-0.224667
-0.231125
-0.251136
-0.214371
-0.199406
-0.2745
-0.334176
-0.311248
-0.294954
-0.373104
-0.466789
-0.53028
-0.556803
-0.562906
-0.622659
-0.671887
-0.686671
-0.702803
-0.737563
-0.748751
-0.708494
-0.628758
-0.523206
-0.366771
-0.128954
-0.225305
-0.231441
-0.254182
-0.215247
-0.198435
-0.277429
-0.332772
-0.298258
-0.293694
-0.39398
-0.49099
-0.539402
-0.570756
-0.574068
-0.616786
-0.686249
-0.733691
-0.746585
-0.758815
-0.773632
-0.764829
-0.703352
-0.599239
-0.434626
-0.163212
-0.225944
-0.231409
-0.258593
-0.216751
-0.200813
-0.273959
-0.32179
-0.290429
-0.307726
-0.418124
-0.507307
-0.545012
-0.574402
-0.590979
-0.618197
-0.702897
-0.773423
-0.793373
-0.792346
-0.787963
-0.779296
-0.7566
-0.686878
-0.518653
-0.207829
-0.226659
-0.231851
-0.261124
-0.216488
-0.20594
-0.273092
-0.308809
-0.286009
-0.327448
-0.437873
-0.515367
-0.550752
-0.579837
-0.606727
-0.640232
-0.723601
-0.801125
-0.837545
-0.839202
-0.804472
-0.766757
-0.767226
-0.757315
-0.624663
-0.291891
-0.227384
-0.232836
-0.260184
-0.216019
-0.214787
-0.276402
-0.29525
-0.281902
-0.346126
-0.45394
-0.521844
-0.556873
-0.58562
-0.619294
-0.66426
-0.742431
-0.826715
-0.885309
-0.893559
-0.823744
-0.740812
-0.742273
-0.81364
-0.790255
-0.476999
-0.228091
-0.234134
-0.257626
-0.216423
-0.225857
-0.282383
-0.283651
-0.278116
-0.361497
-0.471668
-0.531272
-0.560122
-0.584229
-0.623891
-0.679581
-0.761372
-0.85381
-0.920499
-0.927625
-0.83528
-0.706248
-0.684858
-0.866467
-1.08728
-0.925311
-0.228634
-0.234829
-0.255366
-0.218752
-0.238517
-0.29154
-0.279162
-0.270899
-0.364969
-0.485681
-0.541279
-0.560611
-0.577763
-0.624373
-0.691283
-0.782413
-0.879187
-0.938028
-0.934887
-0.836722
-0.659181
-0.570593
-0.841572
-1.54108
-1.81182
-0.229018
-0.233991
-0.254787
-0.22149
-0.252459
-0.306665
-0.287168
-0.260836
-0.347598
-0.4796
-0.544637
-0.563773
-0.576579
-0.627553
-0.704935
-0.804749
-0.897513
-0.941915
-0.91839
-0.810138
-0.587311
-0.384301
-0.640311
-2.02907
-2.84287
-0.229343
-0.233391
-0.253251
-0.22186
-0.264004
-0.329292
-0.308763
-0.262535
-0.310405
-0.440098
-0.537081
-0.577384
-0.593446
-0.640432
-0.723492
-0.828414
-0.913028
-0.942711
-0.891006
-0.752561
-0.493213
-0.230476
-0.455902
-2.40734
-4.0004
-0.229793
-0.233456
-0.252042
-0.223842
-0.263166
-0.339894
-0.337579
-0.287014
-0.275078
-0.382435
-0.520292
-0.595455
-0.621291
-0.660395
-0.741361
-0.843772
-0.921578
-0.942351
-0.86929
-0.690736
-0.400261
-0.145292
-0.456598
-1.99863
-2.44445
-0.230393
-0.234349
-0.25545
-0.232418
-0.24998
-0.3201
-0.363241
-0.326266
-0.266989
-0.346773
-0.506197
-0.606985
-0.644607
-0.678595
-0.754055
-0.848456
-0.919014
-0.932166
-0.849243
-0.643669
-0.339921
-0.120539
-0.325291
-1.43784
-1.4931
-0.231126
-0.234878
-0.262856
-0.241936
-0.232312
-0.293126
-0.375693
-0.352113
-0.283841
-0.34876
-0.500089
-0.603159
-0.649249
-0.684395
-0.758744
-0.845947
-0.907447
-0.90937
-0.823297
-0.613873
-0.309073
-0.0920085
-0.226608
-1.13679
-0.943583
-0.23196
-0.23555
-0.273937
-0.247698
-0.213393
-0.276325
-0.371415
-0.35968
-0.321222
-0.383518
-0.503241
-0.589397
-0.635779
-0.680108
-0.757857
-0.840065
-0.890339
-0.879218
-0.792081
-0.593367
-0.29172
-0.0762721
-0.220989
-0.946167
-0.623114
-0.232871
-0.236246
-0.2869
-0.240982
-0.190805
-0.265445
-0.36204
-0.369916
-0.369197
-0.425268
-0.509611
-0.570639
-0.611021
-0.672071
-0.754907
-0.828495
-0.865347
-0.844612
-0.758253
-0.571383
-0.282073
-0.0804862
-0.231851
-0.804548
-0.609851
-0.23367
-0.23879
-0.296684
-0.211339
-0.162888
-0.272732
-0.378299
-0.402784
-0.410207
-0.453963
-0.513802
-0.554045
-0.593352
-0.665472
-0.750609
-0.811768
-0.835241
-0.810828
-0.72495
-0.540532
-0.264965
-0.0813821
-0.232746
-0.692852
-0.457593
-0.233935
-0.24155
-0.306156
-0.19367
-0.129908
-0.264391
-0.391214
-0.428134
-0.429366
-0.463736
-0.5171
-0.557336
-0.602317
-0.670932
-0.749209
-0.799988
-0.814425
-0.787433
-0.697047
-0.506751
-0.235315
-0.065039
-0.203316
-0.632598
-0.396519
-0.233333
-0.238271
-0.302868
-0.225307
-0.144156
-0.248971
-0.371645
-0.414886
-0.421565
-0.453485
-0.512904
-0.571788
-0.62575
-0.679885
-0.743812
-0.789922
-0.803473
-0.77527
-0.676091
-0.477801
-0.208365
-0.0374834
-0.152436
-0.621745
-0.707643
-0.232286
-0.233285
-0.272282
-0.246576
-0.184313
-0.252354
-0.357235
-0.403577
-0.422489
-0.452943
-0.510258
-0.578958
-0.638264
-0.682221
-0.731342
-0.771978
-0.78942
-0.763165
-0.65777
-0.459755
-0.204034
-0.0265323
-0.111688
-0.652502
-1.1117
-0.219032
-0.221321
-0.226346
-0.215234
-0.209438
-0.252688
-0.322619
-0.351854
-0.336582
-0.330679
-0.334666
-0.407378
-0.508661
-0.543629
-0.55975
-0.581078
-0.609455
-0.617041
-0.579304
-0.489824
-0.4163
-0.373869
-0.302036
-0.154938
-0.0602537
-0.220179
-0.222331
-0.23311
-0.212028
-0.196521
-0.24587
-0.327221
-0.360615
-0.343152
-0.34198
-0.354195
-0.411953
-0.486378
-0.522624
-0.559416
-0.586177
-0.615907
-0.633449
-0.589091
-0.509594
-0.443026
-0.388249
-0.308804
-0.165908
-0.0596842
-0.220665
-0.221585
-0.235437
-0.212819
-0.193383
-0.242431
-0.32763
-0.370051
-0.354592
-0.344075
-0.354624
-0.404101
-0.473643
-0.520662
-0.569264
-0.591281
-0.623915
-0.654622
-0.605637
-0.532052
-0.477392
-0.417202
-0.321888
-0.182014
-0.0688278
-0.221044
-0.221235
-0.235162
-0.216805
-0.193714
-0.239951
-0.327482
-0.37249
-0.35668
-0.344722
-0.362155
-0.410844
-0.486768
-0.548944
-0.587161
-0.592341
-0.610826
-0.648825
-0.630863
-0.573997
-0.524626
-0.46218
-0.357687
-0.218118
-0.0788261
-0.221453
-0.221248
-0.235801
-0.215824
-0.191263
-0.24239
-0.336229
-0.376377
-0.352648
-0.343354
-0.369305
-0.430084
-0.500556
-0.556814
-0.591262
-0.597065
-0.603197
-0.644506
-0.670046
-0.636673
-0.579242
-0.505833
-0.400905
-0.26186
-0.0876365
-0.221896
-0.220751
-0.240734
-0.210648
-0.190345
-0.253715
-0.349501
-0.374206
-0.339121
-0.335073
-0.377564
-0.455627
-0.516343
-0.557199
-0.598431
-0.613266
-0.618767
-0.661012
-0.710818
-0.704038
-0.645862
-0.556011
-0.445565
-0.307344
-0.109722
-0.222463
-0.220459
-0.249007
-0.201768
-0.187636
-0.269602
-0.360073
-0.357541
-0.317446
-0.331118
-0.397453
-0.482322
-0.536503
-0.5636
-0.607525
-0.64188
-0.65136
-0.686711
-0.738682
-0.764454
-0.726999
-0.621038
-0.503024
-0.362372
-0.14852
-0.22315
-0.220697
-0.254513
-0.194458
-0.184645
-0.284081
-0.366765
-0.339816
-0.298803
-0.341258
-0.430526
-0.503436
-0.549104
-0.570056
-0.618297
-0.682291
-0.699845
-0.722056
-0.766547
-0.808492
-0.80711
-0.704875
-0.581535
-0.438296
-0.205397
-0.22402
-0.222205
-0.254844
-0.192115
-0.183985
-0.292544
-0.367666
-0.328171
-0.291617
-0.360858
-0.460874
-0.516048
-0.545091
-0.575179
-0.636584
-0.718402
-0.748379
-0.766897
-0.803033
-0.836474
-0.873712
-0.802502
-0.682538
-0.53586
-0.279819
-0.224997
-0.224332
-0.254221
-0.192031
-0.185282
-0.295346
-0.363793
-0.322301
-0.296801
-0.382303
-0.475813
-0.52213
-0.544228
-0.586378
-0.657653
-0.751994
-0.796957
-0.822203
-0.850355
-0.858902
-0.914156
-0.897723
-0.816562
-0.66613
-0.376847
-0.226092
-0.227092
-0.253711
-0.190174
-0.188275
-0.29544
-0.355747
-0.318383
-0.308996
-0.400398
-0.480217
-0.522294
-0.553095
-0.604797
-0.674019
-0.777338
-0.842635
-0.876854
-0.906766
-0.889634
-0.918327
-0.959749
-0.993709
-0.883082
-0.559879
-0.227186
-0.230326
-0.25389
-0.189623
-0.19001
-0.290676
-0.34429
-0.317273
-0.328271
-0.417396
-0.483269
-0.521421
-0.566786
-0.628282
-0.692732
-0.798847
-0.884031
-0.927831
-0.957545
-0.923799
-0.892396
-0.950938
-1.16516
-1.2798
-1.02219
-0.228157
-0.231455
-0.253931
-0.196355
-0.190762
-0.27552
-0.327286
-0.322646
-0.356681
-0.436931
-0.488762
-0.521942
-0.577847
-0.646702
-0.720535
-0.825542
-0.917792
-0.973301
-0.999507
-0.939714
-0.834434
-0.874408
-1.36174
-2.0676
-2.15053
-0.22906
-0.233441
-0.252799
-0.204658
-0.1971
-0.257431
-0.301815
-0.32629
-0.383332
-0.459232
-0.503821
-0.527235
-0.579372
-0.653259
-0.745514
-0.851038
-0.943624
-1.00193
-1.02882
-0.943298
-0.723197
-0.695902
-1.53063
-3.30949
-3.2273
-0.229857
-0.234686
-0.251984
-0.205114
-0.20838
-0.256011
-0.282796
-0.32085
-0.394127
-0.475255
-0.524754
-0.536237
-0.570491
-0.649414
-0.766282
-0.879722
-0.969878
-1.01805
-1.02605
-0.903897
-0.563217
-0.393719
-1.51403
-4.55538
-3.02305
-0.230507
-0.234228
-0.253716
-0.201734
-0.213865
-0.269448
-0.285745
-0.315548
-0.381063
-0.468943
-0.539513
-0.55083
-0.567854
-0.648559
-0.783145
-0.908101
-0.998663
-1.03275
-1.00445
-0.81736
-0.395493
-0.0809776
-1.30646
-5.40526
-2.86938
-0.231192
-0.234388
-0.255717
-0.200613
-0.213981
-0.278784
-0.304671
-0.319333
-0.352879
-0.438615
-0.53742
-0.567054
-0.579367
-0.653755
-0.789754
-0.920973
-1.0146
-1.04619
-0.978468
-0.736153
-0.285405
0.104457
-1.01761
-4.61859
-2.59311
-0.231993
-0.234261
-0.259748
-0.204214
-0.208205
-0.27495
-0.329395
-0.341785
-0.337704
-0.404298
-0.521003
-0.580227
-0.601845
-0.664751
-0.786671
-0.917953
-1.01135
-1.03903
-0.944803
-0.688311
-0.262863
0.0920327
-0.693475
-2.90346
-1.86118
-0.232957
-0.232873
-0.268576
-0.211045
-0.18841
-0.251515
-0.350362
-0.379349
-0.354414
-0.387538
-0.495584
-0.579563
-0.61864
-0.67135
-0.774876
-0.906433
-1.00045
-1.01236
-0.906639
-0.66835
-0.292213
0.0174114
-0.533837
-2.048
-1.33003
-0.234282
-0.233235
-0.282598
-0.218476
-0.153157
-0.216058
-0.363433
-0.420424
-0.394552
-0.393776
-0.470032
-0.560851
-0.616914
-0.66831
-0.764808
-0.895645
-0.989383
-0.982548
-0.87163
-0.653805
-0.314034
-0.0390699
-0.509025
-1.4468
-0.498768
-0.23593
-0.236782
-0.303568
-0.213813
-0.107205
-0.200305
-0.387263
-0.456935
-0.430625
-0.412299
-0.454405
-0.532228
-0.600763
-0.661313
-0.758466
-0.883689
-0.967134
-0.948659
-0.840408
-0.635065
-0.311278
-0.0690354
-0.44068
-1.08341
-0.410599
-0.237342
-0.242785
-0.327737
-0.184506
-0.0482718
-0.21559
-0.431161
-0.484891
-0.455014
-0.438136
-0.453927
-0.507047
-0.583365
-0.656734
-0.74923
-0.859559
-0.92852
-0.911723
-0.813033
-0.613919
-0.302634
-0.0881285
-0.377348
-0.927385
-0.440742
-0.237546
-0.244007
-0.348692
-0.176995
0.00109063
-0.2141
-0.451565
-0.501134
-0.473537
-0.462295
-0.465655
-0.500436
-0.577485
-0.656247
-0.739115
-0.832552
-0.893602
-0.883678
-0.791089
-0.592468
-0.291935
-0.0961703
-0.31432
-0.807832
-0.385052
-0.23653
-0.237375
-0.34703
-0.221997
-0.0201314
-0.193893
-0.42993
-0.49448
-0.471736
-0.458448
-0.472326
-0.504404
-0.570899
-0.646582
-0.72522
-0.815574
-0.879743
-0.874491
-0.778288
-0.573597
-0.282258
-0.0952368
-0.249277
-0.664108
-0.362757
-0.234887
-0.231721
-0.305442
-0.244957
-0.0843576
-0.1992
-0.416097
-0.490421
-0.47043
-0.453837
-0.480856
-0.514845
-0.563004
-0.627594
-0.70826
-0.802376
-0.872146
-0.868127
-0.765445
-0.555915
-0.274924
-0.0949776
-0.204435
-0.582921
-0.410982
-0.218182
-0.219512
-0.228986
-0.224213
-0.227038
-0.265509
-0.312286
-0.33168
-0.326627
-0.328795
-0.350585
-0.431058
-0.489394
-0.512811
-0.534473
-0.564361
-0.610429
-0.62096
-0.574279
-0.481779
-0.407303
-0.372683
-0.310477
-0.188887
-0.0880422
-0.219427
-0.220705
-0.235288
-0.219376
-0.2155
-0.268527
-0.325645
-0.342125
-0.319226
-0.316304
-0.355662
-0.437593
-0.492789
-0.513861
-0.538509
-0.560021
-0.606003
-0.619001
-0.591048
-0.522705
-0.446308
-0.389387
-0.314344
-0.177424
-0.0927384
-0.220028
-0.220874
-0.239158
-0.214952
-0.203573
-0.273127
-0.341919
-0.348814
-0.309704
-0.306643
-0.347158
-0.432461
-0.500658
-0.528749
-0.561264
-0.567572
-0.607794
-0.635235
-0.619861
-0.562297
-0.484733
-0.409632
-0.322392
-0.188759
-0.113571
-0.220482
-0.220587
-0.242674
-0.212236
-0.199711
-0.282909
-0.356856
-0.335393
-0.289799
-0.304506
-0.35604
-0.443239
-0.522414
-0.557587
-0.59383
-0.583356
-0.597063
-0.636893
-0.654884
-0.607807
-0.529253
-0.446819
-0.355618
-0.224748
-0.0994099
-0.220934
-0.219397
-0.249248
-0.207919
-0.200836
-0.288985
-0.358957
-0.313308
-0.271981
-0.31987
-0.383878
-0.453586
-0.531487
-0.573407
-0.609486
-0.603926
-0.593343
-0.64015
-0.705007
-0.675694
-0.587029
-0.498033
-0.410505
-0.289203
-0.100651
-0.221553
-0.219116
-0.253827
-0.201848
-0.206464
-0.292355
-0.357581
-0.304899
-0.269912
-0.338289
-0.410507
-0.462598
-0.52858
-0.577292
-0.615577
-0.631059
-0.621109
-0.666423
-0.750901
-0.746819
-0.660249
-0.566224
-0.483343
-0.372045
-0.142708
-0.222441
-0.221235
-0.251219
-0.197835
-0.215117
-0.296717
-0.352354
-0.302658
-0.269886
-0.341264
-0.424415
-0.476844
-0.532883
-0.584487
-0.628422
-0.664768
-0.664221
-0.705885
-0.783271
-0.811172
-0.754591
-0.664543
-0.582414
-0.473987
-0.221015
-0.223399
-0.223741
-0.243647
-0.201954
-0.221256
-0.300698
-0.346243
-0.301548
-0.271751
-0.339531
-0.433276
-0.496163
-0.547859
-0.598172
-0.650924
-0.70817
-0.70414
-0.747022
-0.817657
-0.870653
-0.860433
-0.800783
-0.721648
-0.613674
-0.339495
-0.224292
-0.22489
-0.237121
-0.210105
-0.223457
-0.304199
-0.344006
-0.30146
-0.279378
-0.344668
-0.439863
-0.505884
-0.554928
-0.609953
-0.680218
-0.757698
-0.752466
-0.790198
-0.856035
-0.92466
-0.968409
-0.960968
-0.914621
-0.799635
-0.512972
-0.225076
-0.224795
-0.236311
-0.210637
-0.22701
-0.31066
-0.343376
-0.298302
-0.285337
-0.355943
-0.447489
-0.508658
-0.557695
-0.6208
-0.706368
-0.801109
-0.80961
-0.84593
-0.911066
-0.974756
-1.06064
-1.12046
-1.18272
-1.10709
-0.792232
-0.225793
-0.223453
-0.239556
-0.207067
-0.233206
-0.322371
-0.340597
-0.288523
-0.285007
-0.369055
-0.461135
-0.511133
-0.560011
-0.642316
-0.736438
-0.83799
-0.849572
-0.884929
-0.980462
-1.03793
-1.12339
-1.27356
-1.56291
-1.65702
-1.32484
-0.226475
-0.221947
-0.24342
-0.205939
-0.234854
-0.329849
-0.337579
-0.281093
-0.287483
-0.38354
-0.475715
-0.5125
-0.564922
-0.66591
-0.773911
-0.882551
-0.904148
-0.921874
-1.03459
-1.10037
-1.15666
-1.39681
-2.01918
-2.58698
-2.30181
-0.227244
-0.221419
-0.248487
-0.212652
-0.232388
-0.319867
-0.329785
-0.288594
-0.308174
-0.401814
-0.477631
-0.508231
-0.574781
-0.680102
-0.796518
-0.913811
-0.968271
-0.992394
-1.08113
-1.13492
-1.1299
-1.42566
-2.50691
-4.13634
-3.63341
-0.22814
-0.221663
-0.250355
-0.221204
-0.229804
-0.295712
-0.315884
-0.310668
-0.346252
-0.423392
-0.476005
-0.503631
-0.578278
-0.685176
-0.813835
-0.935602
-1.02268
-1.06913
-1.12654
-1.1316
-1.01311
-1.28836
-2.94593
-6.42051
-5.28349
-0.229266
-0.224824
-0.254819
-0.21876
-0.22174
-0.27314
-0.304369
-0.336803
-0.386622
-0.44656
-0.486713
-0.505298
-0.567243
-0.680482
-0.832012
-0.960787
-1.07154
-1.1275
-1.14539
-1.07322
-0.81994
-0.974879
-3.12935
-9.75037
-6.45403
-0.230397
-0.226905
-0.261174
-0.21492
-0.215004
-0.258814
-0.296144
-0.352332
-0.418288
-0.47372
-0.506716
-0.508928
-0.54722
-0.667764
-0.832557
-0.982523
-1.11446
-1.15695
-1.13394
-0.981134
-0.615397
-0.521089
-2.69781
-12.1593
-7.77549
-0.231548
-0.227256
-0.261284
-0.21539
-0.219671
-0.259708
-0.288295
-0.350816
-0.433411
-0.492363
-0.517443
-0.506233
-0.528841
-0.651842
-0.824823
-0.990526
-1.13257
-1.16801
-1.10582
-0.89382
-0.457209
-0.0484983
-2.0207
-9.4746
-7.32204
-0.233004
-0.228635
-0.258257
-0.213924
-0.225821
-0.260986
-0.289525
-0.361392
-0.445683
-0.493734
-0.50812
-0.500475
-0.523626
-0.641033
-0.819339
-0.984737
-1.11871
-1.15595
-1.0704
-0.834191
-0.394773
0.119342
-1.49069
-6.11108
-7.90611
-0.234876
-0.229534
-0.261424
-0.215066
-0.199425
-0.232156
-0.315801
-0.423431
-0.482418
-0.482104
-0.478806
-0.491544
-0.52422
-0.632621
-0.80647
-0.972803
-1.09233
-1.12354
-1.02974
-0.809206
-0.408175
0.118413
-1.28002
-3.86552
-4.49348
-0.237419
-0.2335
-0.279078
-0.21606
-0.118678
-0.168726
-0.37404
-0.526726
-0.529033
-0.464247
-0.445079
-0.478672
-0.523086
-0.62203
-0.785436
-0.958148
-1.06877
-1.08231
-0.991913
-0.797075
-0.444189
-0.0743478
-1.1618
-2.16631
-0.637505
-0.240471
-0.244588
-0.314355
-0.215689
-0.00850549
-0.113502
-0.450608
-0.605704
-0.540624
-0.444739
-0.427932
-0.468402
-0.522793
-0.612372
-0.766841
-0.941536
-1.04184
-1.03633
-0.953922
-0.778541
-0.461382
-0.188649
-0.833774
-1.27282
0.586194
-0.24274
-0.258593
-0.354254
-0.20452
0.0763114
-0.100871
-0.501345
-0.624485
-0.535191
-0.443123
-0.431153
-0.473402
-0.531805
-0.61308
-0.749885
-0.913459
-1.00443
-0.994424
-0.918985
-0.752225
-0.442162
-0.184137
-0.516727
-0.946425
-0.114459
-0.242397
-0.255155
-0.373068
-0.220543
0.0868871
-0.0940741
-0.476498
-0.594402
-0.541443
-0.464619
-0.443548
-0.484417
-0.545835
-0.621221
-0.7347
-0.879447
-0.972579
-0.97558
-0.899888
-0.721253
-0.406694
-0.163645
-0.371393
-0.79278
-0.625888
-0.23989
-0.236101
-0.351514
-0.280606
-0.00517124
-0.0919511
-0.395378
-0.53709
-0.534694
-0.48617
-0.464986
-0.491621
-0.547435
-0.624219
-0.728721
-0.859086
-0.959571
-0.977202
-0.896601
-0.700588
-0.390234
-0.166048
-0.297863
-0.639671
-0.437792
-0.236994
-0.229686
-0.311546
-0.287644
-0.0890996
-0.0990416
-0.345546
-0.510802
-0.529487
-0.501788
-0.495472
-0.502756
-0.53961
-0.618128
-0.726846
-0.850059
-0.948289
-0.967448
-0.878932
-0.672926
-0.37199
-0.168605
-0.267161
-0.557669
-0.37643
-0.218276
-0.220731
-0.233609
-0.225284
-0.209407
-0.229512
-0.279951
-0.329109
-0.344091
-0.327907
-0.346986
-0.434318
-0.477437
-0.485082
-0.513848
-0.553333
-0.609543
-0.637144
-0.595931
-0.493383
-0.39422
-0.328204
-0.250216
-0.14631
-0.013352
-0.219735
-0.223369
-0.238186
-0.219445
-0.198604
-0.229083
-0.295635
-0.348821
-0.346765
-0.313565
-0.338677
-0.432014
-0.490732
-0.500629
-0.514346
-0.543918
-0.611902
-0.638907
-0.597507
-0.510559
-0.421633
-0.356935
-0.270698
-0.13341
-0.00962858
-0.22049
-0.224139
-0.244237
-0.207749
-0.180777
-0.238089
-0.328927
-0.350278
-0.317985
-0.301142
-0.334727
-0.429011
-0.504809
-0.528246
-0.536675
-0.553616
-0.626287
-0.657388
-0.609562
-0.526713
-0.450824
-0.386421
-0.297682
-0.150603
-0.040425
-0.221075
-0.223073
-0.250605
-0.195525
-0.175752
-0.266555
-0.3668
-0.332388
-0.279153
-0.296088
-0.344623
-0.437247
-0.51872
-0.551573
-0.575464
-0.591548
-0.629331
-0.652844
-0.625889
-0.553793
-0.492196
-0.438608
-0.362202
-0.215024
-0.062628
-0.221828
-0.223156
-0.254695
-0.185126
-0.180901
-0.292122
-0.368708
-0.296131
-0.252679
-0.309579
-0.362924
-0.43434
-0.531745
-0.579209
-0.612004
-0.631103
-0.629269
-0.652615
-0.657439
-0.604464
-0.559205
-0.525321
-0.460381
-0.317301
-0.0991689
-0.222871
-0.225613
-0.250884
-0.179748
-0.190921
-0.304326
-0.34769
-0.274535
-0.261505
-0.342892
-0.393466
-0.434963
-0.539545
-0.60087
-0.635608
-0.664031
-0.649968
-0.677752
-0.696753
-0.669843
-0.65067
-0.644711
-0.605982
-0.466527
-0.173119
-0.224106
-0.229584
-0.237779
-0.186341
-0.2086
-0.305454
-0.327281
-0.271038
-0.277825
-0.355909
-0.408672
-0.443845
-0.540266
-0.609147
-0.65863
-0.697755
-0.687304
-0.714804
-0.743187
-0.745755
-0.769004
-0.805503
-0.799829
-0.684959
-0.29899
-0.225231
-0.231707
-0.225671
-0.20167
-0.225194
-0.301408
-0.308168
-0.26854
-0.289262
-0.359727
-0.416999
-0.4663
-0.549717
-0.614064
-0.68712
-0.740178
-0.724136
-0.755821
-0.805906
-0.842587
-0.918801
-1.01953
-1.05949
-0.98271
-0.497022
-0.226253
-0.231239
-0.225505
-0.210772
-0.230731
-0.296112
-0.293322
-0.260158
-0.29599
-0.37575
-0.43537
-0.48826
-0.55778
-0.623265
-0.714216
-0.78221
-0.761036
-0.791993
-0.875996
-0.960545
-1.09929
-1.30031
-1.43933
-1.39665
-0.814673
-0.227417
-0.23251
-0.233475
-0.207078
-0.228496
-0.293817
-0.28944
-0.257437
-0.299408
-0.391436
-0.458222
-0.502702
-0.557327
-0.646603
-0.757409
-0.815027
-0.79883
-0.830999
-0.949084
-1.08141
-1.29343
-1.66096
-2.03232
-2.05657
-1.39829
-0.228704
-0.234883
-0.240306
-0.197013
-0.228151
-0.297756
-0.289967
-0.260869
-0.301585
-0.395037
-0.473086
-0.514718
-0.555019
-0.669895
-0.798475
-0.86582
-0.858752
-0.886308
-1.02154
-1.19762
-1.48894
-2.11342
-2.865
-3.1227
-2.44065
-0.229943
-0.237356
-0.246328
-0.187985
-0.225042
-0.3069
-0.295579
-0.261639
-0.299734
-0.396888
-0.484548
-0.526447
-0.561611
-0.672533
-0.807726
-0.926172
-0.95032
-0.960869
-1.09773
-1.30873
-1.66875
-2.59295
-3.84655
-4.8852
-3.91586
-0.231002
-0.237724
-0.250258
-0.18767
-0.226585
-0.31318
-0.295006
-0.255485
-0.299288
-0.40735
-0.49291
-0.528538
-0.567918
-0.680942
-0.820336
-0.936288
-1.02959
-1.06017
-1.18873
-1.4004
-1.78295
-2.91155
-4.75897
-7.58493
-5.55481
-0.231941
-0.236943
-0.25171
-0.191264
-0.235364
-0.313791
-0.285622
-0.251149
-0.310625
-0.422735
-0.493642
-0.516415
-0.566811
-0.701327
-0.86342
-0.949096
-1.06348
-1.1556
-1.2624
-1.43337
-1.77309
-2.9236
-5.35416
-10.8152
-7.4465
-0.232872
-0.236344
-0.256
-0.198657
-0.243332
-0.300184
-0.264822
-0.256319
-0.335459
-0.438811
-0.493152
-0.507293
-0.565043
-0.71047
-0.902684
-0.994278
-1.09291
-1.23368
-1.30689
-1.39491
-1.62264
-2.67416
-5.65895
-15.9775
-10.5465
-0.233799
-0.233853
-0.263192
-0.212237
-0.242444
-0.27225
-0.238201
-0.271528
-0.37618
-0.464113
-0.494702
-0.500068
-0.559978
-0.705269
-0.899187
-1.02754
-1.14477
-1.28645
-1.32524
-1.31616
-1.35056
-1.99581
-5.83119
-22.4857
-18.9341
-0.234992
-0.230843
-0.269607
-0.220455
-0.231839
-0.249022
-0.22456
-0.295822
-0.425799
-0.496546
-0.491002
-0.478639
-0.539741
-0.687329
-0.870903
-1.05043
-1.19423
-1.27968
-1.30813
-1.23387
-1.05176
-0.750704
-5.1797
-15.8334
-17.2029
-0.236977
-0.232574
-0.274244
-0.214902
-0.203824
-0.227264
-0.239637
-0.345216
-0.478206
-0.523613
-0.482993
-0.455682
-0.516645
-0.667428
-0.85089
-1.05185
-1.20308
-1.26614
-1.26717
-1.15778
-0.822211
0.0965973
-3.64988
-8.48608
-2.60411
-0.239755
-0.236596
-0.288849
-0.214003
-0.139024
-0.159211
-0.275108
-0.44677
-0.542998
-0.533028
-0.463638
-0.440267
-0.500118
-0.645426
-0.838778
-1.01859
-1.1784
-1.25527
-1.23013
-1.11555
-0.612991
0.0342086
-2.46385
-3.60252
-3.56079
-0.243222
-0.245894
-0.32724
-0.230123
-0.0359777
-0.0319396
-0.306435