/*--------------------------------*- C++ -*----------------------------------*\
  =========                 |
  \\      /  F ield         | OpenFOAM: The Open Source CFD Toolbox
   \\    /   O peration     | Website:  https://openfoam.org
    \\  /    A nd           | Version:  11
     \\/     M anipulation  |
\*---------------------------------------------------------------------------*/
FoamFile
{
    format      ascii;
    class       surfaceScalarField;
    location    "30";
    object      phi;
}
// * * * * * * * * * * * * * * * * * * * * * * * * * * * * * * * * * * * * * //

dimensions      [0 3 -1 0 0 0 0];

internalField   nonuniform List<scalar> 
49858
(
3189.11
11.5265
8.36235
3227.97
19.3109
-6.11651
3265.21
24.4267
-8.61402
3298.44
28.854
-4.81897
3342.19
24.0846
-7.99552
3382.48
35.4817
-16.2666
3404.19
58.2984
-23.9894
3413.75
75.2749
-29.4951
3421.48
83.5813
-37.1235
3438.92
88.1872
-46.7564
3449.5
103.669
-49.4552
3447.97
128.454
-55.3356
3407.16
166.673
-50.2124
3305.5
224.775
-42.4079
3177.89
268.178
-56.1897
3030.63
304.038
-67.6907
2877.93
309.11
-72.9768
2672.03
312.33
-43.4042
2294.82
302.859
61.4181
1588.03
310.459
267.091
407.503
307.521
582.081
-1304.16
274.831
984.974
-3347.45
94.4461
1388.39
-4926.56
-234.842
1350.76
105.167
177.559
3213.22
-2.75319
10.4017
3282.08
7.19447
-3.8425
3346.79
21.3208
-7.2769
3405.44
29.6802
-2.84274
3464.07
31.2357
-6.51866
3538.11
39.915
-17.451
3611.17
68.5324
-23.7529
3670.13
98.1064
-25.3449
3731.33
106.603
-30.7883
3815.06
103.134
-43.9567
3893.84
135.238
-49.6341
3959.47
184.431
-55.6099
4002.85
247.958
-53.2253
4026.48
327.366
-48.8538
4039.32
400.099
-57.842
4029.21
466.153
-60.9922
3969.84
510.324
-51.8964
3804.15
548.912
-12.1515
3417.71
616.291
86.1645
2690.91
704.085
239.044
1506.37
805.054
477.339
-213.121
816.478
807.499
-2372.87
708.863
1138.18
-4491
467.167
1152.56
411.255
266.841
3204.81
-8.36889
10.2707
3259.47
9.01293
-3.30464
3315.35
28.398
-8.38355
3368.17
39.736
-5.20509
3416.23
53.0753
-8.72876
3483.66
52.8547
-17.6476
3552.1
81.0862
-18.8808
3593.32
131.999
-15.6104
3635.46
143.595
-20.0375
3700.13
133.022
-33.5281
3754.76
187.479
-43.4219
3797.51
259.873
-52.8067
3823.55
340.517
-52.7391
3859.32
412.58
-52.3092
3887.7
505.339
-63.7353
3895.58
590.772
-64.2952
3854.42
643.859
-41.6532
3711.23
685.874
20.9489
3366.53
798.449
124.689
2720.67
950.689
262.238
1640.39
1165.09
477.31
-6.87426
1297.11
809.14
-2233.97
1369.38
1204
-4455.12
1108.9
1341.74
1001.79
258.493
3203.29
-12.5373
10.4016
3257.61
10.8468
-3.14788
3315.9
33.121
-8.46083
3368.15
50.3208
-5.63764
3415.77
74.2172
-8.59137
3481.12
65.9306
-16.0814
3549
93.4757
-17.3588
3590.2
164.557
-12.799
3630.83
180.733
-18.7522
3685.52
173.418
-35.3318
3733.97
243.562
-44.9599
3773.36
326.829
-46.9559
3796.98
423.378
-47.2855
3829.15
494.067
-52.049
3854.85
610.93
-63.5414
3849.9
724.658
-59.3801
3781
792.254
-25.157
3606.95
859.02
52.2093
3255.81
972.563
164.068
2653.72
1180.91
305.918
1660.46
1454.26
502.576
116.287
1726.7
827.14
-2138.35
2028.99
1269.42
-4992.98
2345.44
1508.05
2397.67
420.628
3202.27
-16.1619
10.7886
3257.77
12.3045
-3.3763
3317.39
37.7269
-9.07546
3369.32
62.5812
-5.41982
3420.74
92.8275
-8.64458
3484.75
81.5729
-15.3345
3546.57
111.46
-15.6778
3594.71
190.469
-11.1926
3643.27
216.341
-21.7347
3695.98
225.961
-42.2422
3746.28
301.66
-46.6462
3783.11
388.312
-40.1251
3812.29
488.096
-40.3049
3828.96
570.959
-42.8075
3846.71
698.431
-56.1598
3833.43
827.304
-55.3298
3749.91
909.902
-19.7021
3554.9
977.543
60.2599
3207.55
1059.77
188.076
2634.34
1248.31
351.148
1712.59
1544.92
563.526
241.588
1950.12
896.928
-2066.39
2595.59
1405.03
-6003.61
4198.91
1836.86
4356.43
1312.35
3201.6
-19.2875
11.1734
3257.8
12.9852
-3.45546
3316.86
44.304
-10.4739
3369.63
72.1261
-3.67585
3427.29
103.472
-6.29558
3489.89
93.0097
-9.66589
3544.23
128.761
-8.59111
3599.97
204.622
-8.66629
3661.41
240.898
-24.5662
3713.45
278.989
-43.4589
3759.7
353.691
-40.933
3790.24
438.439
-28.1768
3823.88
531.964
-30.1482
3826.27
649.766
-33.6167
3831.83
782.415
-45.2353
3819.48
915.301
-44.817
3743.17
1032.9
-14.5203
3548.39
1112.27
64.6064
3205.73
1191.7
207.591
2641.88
1323.74
393.928
1768.54
1624.43
633.685
366.458
2100.44
985.081
-1944.99
3033.51
1564.48
-5916.18
5656.29
2251.37
5059.68
1330.31
3201.65
-22.8834
11.5009
3257.35
14.8418
-3.4187
3316.53
52.9564
-11.4756
3369.09
80.6096
-0.835231
3433
107.658
-4.83237
3492.7
103.359
-6.00176
3544.31
149.196
-7.94415
3607.63
220.047
-15.6287
3682.7
262.347
-32.6442
3735.42
329.967
-41.1037
3775.49
401.61
-30.5478
3802.71
476.932
-15.9313
3833.73
564.723
-21.7964
3833.07
717.985
-32.5477
3827.98
850.343
-41.6044
3815.12
969.544
-38.6431
3740.33
1090.07
-7.83932
3550.88
1176.67
78.4813
3197.21
1209.77
230.862
2641.32
1259.72
439.708
1811.38
1462.85
699.685
529.594
1923.39
1076.23
-1649.86
3055.07
1727.25
-5469.84
6158.82
2810.42
4825.93
1335.63
3200.55
-25.4856
11.8958
3256.86
15.6811
-3.357
3317.58
60.1976
-11.8058
3369.3
88.2963
0.186153
3438.28
108.304
-6.32077
3496.84
117.407
-6.31203
3551.36
170.604
-11.3883
3623.61
232.831
-23.823
3705.21
274.604
-32.9593
3758.76
362.902
-27.6121
3793.46
433.656
-14.1694
3818.93
500.992
-5.6392
3840.9
595.781
-16.4066
3849.7
772.589
-33.7759
3846.1
914.9
-41.6913
3821.92
1029.67
-32.7399
3732.55
1148.08
12.3539
3533.32
1253.17
109.827
3168.15
1247.17
267.757
2631.73
1216.15
486.724
1890.76
1270.39
752.345
816.877
1647.74
1130.77
-1089.88
2812.48
1820.26
-5008.31
6162.41
3495.76
4369.48
1509.71
3200.08
-28.2206
12.2629
3256.38
17.9158
-3.44258
3318.25
66.2679
-11.0801
3371.72
96.5498
-0.866262
3442.94
111.481
-9.65018
3504.36
131.183
-9.42799
3564.76
186.829
-12.6049
3644.33
240.361
-23.3385
3720.4
284.484
-22.2442
3774.06
380.152
-10.7471
3809.49
451.401
-1.67477
3836.24
518.344
-3.4341
3849.84
628.942
-18.1793
3870.25
807.076
-38.5015
3872.62
954.646
-44.274
3827.02
1060.48
-22.3098
3713.32
1159.05
43.6812
3492.53
1219.16
152.698
3139.63
1142.07
317.561
2653.71
931.803
532.045
2068.06
757.973
791.387
1264.1
884.256
1155.48
-254.046
1932.82
1878.15
-4402.96
5277.94
4328.5
3611.01
2043.25
3199.42
-30.2701
12.6541
3257.06
18.2612
-3.64465
3319.06
70.4907
-10.1376
3376.49
102.245
-2.94951
3447.67
117.753
-13.4985
3514.13
145.187
-12.7788
3582.72
196.949
-10.2172
3664.24
238.59
-14.5854
3728.91
289.236
-7.93298
3785.37
379.956
-0.88351
3829.3
452.191
0.744549
3860.73
531.414
-10.0073
3873.5
664.057
-26.4728
3901.12
832.716
-42.6695
3904
983.359
-41.1298
3840.55
1090.77
-6.84326
3699.79
1166.28
76.5329
3464.55
1164.36
202.304
3129.18
993.54
370.324
2719.04
599.673
566.633
2303.08
185.98
794.324
1809.99
11.4573
1130.96
610.004
908.133
1924.03
-3500.02
3574.67
5370.2
2043.36
3764.24
3198.77
-32.4666
13.1856
3257.48
19.2552
-4.24866
3318.91
75.5023
-9.14615
3379.61
105.011
-2.8649
3452.41
126.702
-15.8696
3520.9
159.704
-14.2306
3597.24
193.185
-4.37535
3675.11
227.684
-1.07891
3731.4
291.263
4.99821
3793.85
371.523
2.04399
3847
446.285
-3.29476
3882.86
541.648
-17.2266
3903.94
688.869
-32.896
3933.75
839.874
-42.4134
3929.34
987.539
-35.4669
3855.24
1086.18
3.7519
3688.37
1104.68
103.104
3440.8
1003.43
248.955
3112.57
664.222
408.692
2779.1
66.1905
572.136
2518.24
-662.737
738.021
2320.78
-1257.49
1035.35
1243.07
-301.799
1737.82
-2512.06
2869.01
3805.34
1159.65
616.215
3198.03
-34.1427
13.8705
3258.8
18.2904
-5.15762
3319.84
79.285
-8.68147
3380.61
105.175
-0.835342
3456.05
130.14
-13.9411
3525.21
172.653
-13.8074
3606.19
184.754
-0.958779
3681.29
214.877
8.69115
3737.89
287.87
10.8817
3806.03
358.466
-2.29172
3866.95
436.54
-14.1887
3909.9
546.581
-26.64
3944.55
698.041
-38.3272
3972.85
839.777
-42.5596
3961.66
984.263
-32.242
3878.24
1071.06
12.8241
3685.59
1036.93
128.845
3402.75
825.957
284.043
3061.29
338.259
426.703
2756.07
-437.528
534.786
2610.83
-1442
618.14
2597.81
-2414.03
880.116
1753.16
-1260.01
1516.88
-1749.62
2376.07
3802.18
522.297
323.564
3197.54
-36.4307
14.563
3259.33
19.1467
-5.97998
3321.5
83.9864
-9.31917
3381.01
104.79
1.58433
3455.98
127.06
-6.39891
3528.23
180.58
-10.3121
3611.92
174.503
-1.6812
3690.1
194.704
11.2835
3749.54
277.048
14.4653
3815.87
346.197
-2.55462
3882.15
425.147
-20.6144
3936.02
542.049
-32.9283
3984.25
685.956
-41.2535
4008.34
825.47
-41.3867
3988.93
959.036
-28.1842
3883.68
1013.05
30.5737
3656.75
913.856
159.181
3317.22
573.012
307.875
2932.54
-48.0898
424.672
2611.48
-1009.51
461.207
2566.18
-2258.93
416.961
2811.59
-3682.12
517.489
2502.67
-2662.35
1265.84
-912.558
989.298
4384.13
-74.2508
358.876
3196.46
-37.5695
15.2157
3260.55
18.022
-6.69554
3326.42
83.95
-8.82248
3383.39
104.246
3.56644
3450.48
123.093
0.313161
3528.09
176.171
-7.04779
3616.72
164.044
-7.87339
3708.3
175.937
-0.730406
3778.13
266.204
7.82169
3843.36
339.747
-5.61317
3913.92
415.828
-28.5938
3977.59
531.378
-41.5043
4033.25
662.662
-44.5791
4052.71
803.419
-38.6228
4019.7
922.184
-16.0916
3885.72
942.958
57.2925
3609.89
785.305
186.961
3199.34
358.195
324.272
2726.88
-358.141
408.707
2359.32
-1440.11
362.505
2392.15
-2842.32
93.1596
3129.62
-4533.67
-315.436
3691.73
-3879.7
302.345
108.186
129.48
4281.43
-507.933
306.077
3195.52
-38.4188
15.5908
3260.5
18.4783
-6.81694
3329.36
82.0335
-7.75493
3385.58
100.809
7.76155
3443.72
121.576
6.46966
3524.13
166.601
-4.91253
3612.22
161.547
-17.3235
3711.71
166.03
-21
3801.08
247.185
-6.88568
3875.02
325.778
-9.24046
3950.8
398.983
-28.8877
4022.77
503.95
-38.1691
4076
623.88
-35.4899
4086.75
758.218
-25.5372
4032.79
857.566
3.00202
3858.89
845.706
82.7548
3515.74
629.882
207.73
3017.72
136.581
335.311
2429.38
-659.044
386.539
2005.31
-1792.18
217.029
2181.06
-3253.12
-400.332
3604.4
-5029.52
-1591.86
5106.83
-4873.87
-995.834
527.019
-1772.13
6106.55
-1096.74
561.539
3194.28
-37.7973
16.0679
3260.88
17.6915
-6.49819
3332.39
77.2653
-7.6168
3388.67
91.9953
11.2841
3438.54
119.323
12.1294
3521.72
147.296
-3.31174
3612.24
162.55
-28.2143
3712.76
178.147
-46.4971
3819.02
239.905
-33.2965
3908.07
314.652
-22.4815
3986.12
379.997
-25.1603
4057.79
461.503
-20.9101
4101.2
568.31
-13.9355
4105.8
694.507
-6.71176
4033.1
778.983
21.3166
3819.27
752.648
100.869
3403.78
506.229
224.599
2797.03
-19.9252
344.311
2076.71
-832.755
360.277
1568.69
-1913
17.5618
1954.3
-3368.95
-970.553
4621.37
-5529.98
-2936.93
8056.73
-5460.42
-3465.24
3924.59
-4914.06
6992.1
-1448.09
-703.728
3192.91
-36.8389
16.9784
3260.47
17.8983
-6.39322
3334.42
71.7113
-7.86173
3389.96
82.282
13.5767
3436.74
115.727
15.7578
3517.08
125.656
0.623921
3607.55
161.139
-28.2688
3711.51
194.878
-57.6647
3830.18
238.505
-54.8121
3931.74
300.148
-34.8897
4004.12
350.759
-13.3688
4061.82
401.83
4.92723
4094.58
490.217
9.41185
4097.39
601.25
7.32674
4010.71
678.29
31.5165
3757.52
646.409
111.28
3267.21
393.82
237.101
2535.26
-145.119
348.513
1663.78
-901.534
314.173
1009.34
-1825.47
-200.925
1558.65
-3172
-1647.63
5480.14
-5385.44
-5217.06
8796.97
-2393.25
-7052.02
2739.67
-1670.17
2459.76
478.171
-2709.29
3190.57
-34.4528
18.4576
3259.75
16.5458
-5.87559
3337.48
63.1814
-9.26153
3392.78
73.0233
12.2154
3449.68
106.113
11.3191
3524.04
108.966
0.628958
3612.08
152.286
-21.2345
3719.62
198.622
-52.0165
3843.73
233.618
-59.3934
3949.04
279.899
-33.9328
4013.23
314.791
3.38696
4052.03
341.283
25.3196
4076.07
408.286
22.9238
4078.79
496.915
13.6296
3983.09
573.924
37.5279
3698.09
553.396
120.944
3133.44
318.106
248.158
2284.92
-174.148
350.78
1234.48
-781.954
255.6
426.544
-1427.3
-409.402
1046.08
-2388.91
-2377.78
4352.41
-3146.22
-6610.98
6125.72
346.127
-5148.77
1677.76
910.19
1536.13
1724.99
-2761.38
3187.47
-30.947
20.2662
3257.44
13.4436
-4.93234
3338.89
54.8935
-12.0122
3396.05
69.5065
6.60672
3469.67
91.8053
1.00565
3543.09
99.8112
-6.21469
3634.84
139.494
-20.9251
3746.38
189.169
-44.0933
3865.71
219.963
-49.2603
3964.15
248.815
-20.6353
4023.53
266.565
14.7285
4051.65
281.019
29.8152
4066.22
325.941
23.3678
4056.82
390.899
15.6512
3942.22
460.638
44.4522
3627.36
453.872
133.151
3002.88
247.242
261.54
2070.51
-169.723
360.113
955.82
-652.227
212.73
295.505
-1099.03
-527.034
999.683
-1732.95
-2322.89
2722.32
-1356.96
-4367.63
3581.79
1040.96
-2056.5
1137.7
1629.57
1441.11
2069.02
-1727.04
3183.78
-25.5944
22.2484
3254.05
10.851
-3.1974
3339.44
47.2714
-14.0267
3402.59
68.4806
0.541275
3481.74
81.6272
-5.31214
3556.08
103.115
-16.398
3653.56
132.136
-31.6264
3770.37
168.847
-39.8914
3883.96
189.889
-29.4095
3976.15
204.01
-2.25482
4038.09
212.232
16.1827
4073.55
225.36
18.1949
4086.81
256.378
9.36188
4055.59
309.487
9.21193
3911.3
366.558
47.1768
3567.35
360.665
142.526
2906.43
181.11
275.897
1925.47
-167.272
371.787
927.67
-622.531
193.116
467.633
-994.889
-457.015
869.378
-1256.44
-1683.81
2068.15
-522.135
-2703.44
2658.6
835.332
-767.576
1083.01
1811.63
1138.28
2142.22
-1164.28
3183.19
-20.8769
23.9455
3249.98
7.21028
-1.55108
3339.69
35.6569
-16.2507
3412.67
61.1531
-1.4367
3484.34
75.4562
0.0678908
3560.3
108.376
-17.4666
3660.96
129.913
-37.0884
3778.02
141.403
-31.5347
3881.37
150.501
-10.4296
3970.91
152.758
3.15778
4041.76
162.505
0.556872
4089.31
178.592
-9.14972
4105.24
203.646
-12.7973
4051.15
249.652
1.28686
3874.59
298.679
48.7433
3501.87
275.729
145.728
2821.33
119.166
286.35
1851.64
-192.848
372.533
944.668
-676.539
189.81
498.043
-1010.68
-343.04
716.219
-955.502
-1305.03
1844.79
-430.534
-1824.53
2495.77
27.5356
-191.112
1224.15
1604.67
1262.5
2114.53
-632.722
3184.91
-19.83
25.1618
3248.11
12.4844
0.382159
3335.93
34.8892
-18.302
3412.98
48.7274
1.07061
3473.28
63.7892
14.1048
3557.3
90.6621
-7.59004
3660.21
101.845
-17.3834
3760.37
98.9142
-0.879121
3849.33
106.938
9.4338
3934.1
109.047
2.15159
4006.71
123.479
-12.9488
4061.87
136.303
-25.2088
4074.78
154.536
-24.7147
3996.47
195.808
2.57117
3788.85
228.943
53.656
3403.2
177.202
144.08
2724.88
15.9081
278.658
1824.3
-297.258
355.194
971.096
-788.572
200.376
476.384
-973.374
-229.587
516.613
-539.772
-1062.05
1581.63
-620.319
-1284.18
2499.51
-1218.8
147.189
1197
1854.13
988.446
2465.35
-693.224
3187.31
-19.1774
25.7565
3252.81
20.9213
0.123077
3341.04
41.149
-22.189
3416.88
41.7512
0.0584234
3467.32
58.1662
23.4212
3552.52
77.9297
-5.27186
3655.74
80.1798
-13.8297
3750.37
73.7983
-1.63791
3842.31
82.8578
-4.85044
3928.87
88.0636
-15.8483
3999.08
95.8918
-23.0267
4043.18
102.492
-26.062
4033.43
107.216
-20.6764
3926.31
138.768
15.5587
3685.21
135.438
71.2943
3272.8
48.2883
153.87
2582.58
-133.794
272.725
1727.93
-492.112
344.118
944.47
-1014.09
231.98
385.287
-1025.26
-152.976
117.726
1.41552
-966.165
820.949
-782.377
-974.229
1836.64
-2789.22
386.022
1420.45
1676.92
472.791
3101.69
-925.299
3187.34
-16.9391
24.9096
3259.03
30.725
-1.21021
3353.11
48.3067
-23.4078
3424.84
41.8195
4.2736
3463.72
49.459
44.9054
3533.13
62.5457
20.9128
3622.12
59.2288
7.26694
3710.15
51.6429
7.9759
3808.68
54.8444
-2.45056
3903.99
54.5954
-13.1232
3980.96
53.0238
-16.3718
4023.05
44.5531
-14.0819
4012.35
33.7169
-7.87278
3902.74
38.036
27.9665
3655.23
-2.71853
88.8282
3249.38
-167.526
165.528
2650.02
-439.938
272.447
1869.2
-854.856
353.193
1046.05
-1401.49
296.237
44.4129
-906.317
-90.9747
-905.702
1135.17
-997.216
-1610.66
235.964
-685.986
-3177.25
-2394.95
1037.99
-4734.05
2383.79
793.629
4345.12
-630.205
3170.8
21.2585
3232.08
-4.56779
3328.67
-22.4845
3399.27
-2.71026
3445.21
30.0949
3522.67
11.8278
3611.79
-3.24313
3689.7
-0.885391
3768.41
-2.80239
3842.35
-6.62734
3901.7
-6.66614
3932.08
-3.81251
3933.72
-10.5608
3878.39
18.793
3661.66
95.1611
3129.94
187.725
2150.15
301.201
598.327
399.85
-1497.2
344.334
-2273.94
-485.122
809.082
-2190.43
2514.9
-1559.66
-62.7906
155.387
2704.93
-397.137
-1409.89
3203.11
13.4266
1.20214
3238.3
21.4364
-9.21773
3277.42
26.1034
-19.4861
3311.01
36.008
-17.6283
3352.81
28.9043
-19.6772
3396.73
28.6125
-29.8761
3427.58
45.6526
-42.8664
3451.9
55.046
-52.9732
3470.89
58.5402
-59.9147
3478.89
68.8979
-66.7875
3492.14
71.0103
-71.4655
3498.04
103.515
-99.1269
3473.46
172.607
-128.487
3434.51
230.817
-162.065
3375.32
278.033
-197.057
3300.75
307.83
-214.547
3235.07
303.509
-214.771
3153.41
289.707
-164.278
2960.52
337.996
-45.1317
2574.21
466.449
150.626
1974.17
629.051
426.764
1258.19
788.622
741.842
646.728
901.901
964.309
345.675
814.639
801.214
505.783
215.726
3236.7
-3.93443
0.890283
3308.45
9.38846
-8.19426
3382.39
20.2549
-19.6152
3448.22
40.4215
-15.7251
3509.28
36.7495
-15.404
3581.3
31.1627
-30.5198
3655.35
54.6652
-46.3043
3727.09
69.343
-53.718
3793.02
73.0552
-56.9929
3850.28
88.2097
-65.5803
3905.34
99.2475
-75.0848
3969.23
152.377
-104.826
4033.25
256.464
-135.838
4115.65
331.692
-161.671
4194.35
406.476
-187.086
4263.94
469.478
-203.108
4317.75
500.633
-209.979
4321.02
527.404
-170.808
4212.06
633.867
-64.4991
3914.7
857.117
108.261
3386.13
1150.71
357.708
2676.88
1465.25
661.972
1950.05
1717.4
907.97
1447.6
1657.53
787.311
1089.46
207.843
3224.38
-8.72114
0.57281
3283.85
10.3781
-7.46355
3343.93
27.5047
-19.5042
3398.58
52.3911
-12.9951
3453.62
47.2259
-12.1132
3520.9
40.5422
-30.6703
3586.78
76.627
-44.2876
3640.87
106.59
-46.9212
3690.91
114.218
-53.4285
3743.75
128.184
-68.4855
3795.15
145.284
-79.763
3854.09
207.94
-105.872
3907.46
338.81
-127.203
3970.37
421.626
-141.727
4030.99
511.86
-161.683
4092.43
593.773
-178.511
4150
654.719
-183.83
4170.91
710.348
-137.667
4108.13
838.037
-19.3964
3872.21
1103.15
165.347
3405.9
1507.55
420.615
2722.77
1996.98
742.918
1941.59
2480.66
1049.57
1380.46
2566.24
939.18
1592.49
235.418
3223.39
-11.8219
0.218291
3283.4
10.3615
-6.94552
3344.4
34.5222
-19.5649
3398.13
62.3422
-10.3094
3453.53
58.0444
-13.2141
3520.17
54.242
-32.57
3585.68
97.0573
-40.1889
3632.55
145.131
-37.7372
3678.63
159.487
-52.6096
3738.23
166.823
-76.3993
3792.4
197.922
-94.0738
3852.4
271.751
-113.222
3910.1
409.881
-120.302
3959.2
502.736
-124.467
4006.72
605.525
-141.247
4053.6
710.32
-153.749
4093.94
806.775
-149.383
4106.49
892.236
-94.588
4052.61
1028.84
30.9896
3852.88
1304.59
228.931
3436.33
1767.45
499.931
2776.42
2405.12
862.05
1905.56
3171.25
1265.18
1144.79
3591.32
1189.34
2099.03
318.725
3224.9
-15.5365
-0.321853
3283.27
11.5934
-6.08899
3344.38
41.2602
-19.6493
3397.74
70.6347
-7.09099
3452.68
73.2401
-15.3512
3520.19
68.346
-31.9493
3587.64
113.887
-35.9436
3639.5
180.629
-37.268
3691.51
202.549
-57.2352
3754.27
202.39
-80.7052
3807.31
254.607
-97.6504
3863.65
342.669
-111.842
3928.17
474.904
-119.194
3972.34
583.442
-119.122
4023.38
679.816
-132.253
4069.22
795.609
-139.863
4095.06
911.184
-119.785
4095.13
1011.23
-51.9901
4037.23
1136.31
79.849
3869.19
1393.21
294.916
3503.31
1863.05
600.224
2870.62
2626.97
1028.58
1892.21
3736.33
1570.84
741.791
4862.41
1591.1
3097.72
508.191
3225.72
-18.9757
-0.846569
3283.02
12.8244
-5.04136
3342.28
48.3163
-18.7021
3398.03
78.1199
-5.94525
3456.79
90.6663
-19.1962
3525.74
84.7915
-31.0657
3593.22
134.724
-34.4794
3652.54
212.617
-40.1241
3714.17
233.386
-57.8343
3775.19
231.087
-73.8655
3828.98
304.162
-87.6905
3884.2
412.382
-102.457
3958.6
532.752
-117.399
4008.44
661.568
-118.607
4056.05
754.138
-124.243
4097.26
867.052
-120.752
4117.18
989.544
-84.1213
4106.04
1105.36
-5.7596
4048.81
1227.94
134.908
3915.14
1447.06
367.315
3616.89
1892.51
710.845
3040.24
2740.47
1208.93
2000.31
4169.02
1918.5
443.177
6250.53
2242.05
3851.08
778.382
3226.57
-22.6894
-1.08741
3283.39
14.6087
-4.3564
3340.29
55.1006
-16.2638
3400.7
85.9867
-7.64613
3467.77
106.596
-24.3474
3534.83
107.435
-30.7718
3598.81
159.31
-32.5105
3663.53
233.433
-39.4477
3732.23
247.317
-54.1276
3790.49
259.452
-67.4945
3851.29
352.029
-83.8837
3917.87
479.071
-102.147
3995.07
591.443
-119.113
4052.3
725.953
-120.673
4087.63
820.189
-116.424
4118.97
904.577
-96.785
4140.48
1002.51
-46.2437
4134.26
1104.49
39.3849
4095.46
1202.34
196.76
3995.04
1344.19
451.323
3767.56
1721.56
828.616
3279.08
2572.12
1389.51
2251.86
4255.33
2310.45
38.9506
7566.74
3382.82
4325.84
1286.03
3226.24
-25.7083
-0.891164
3283.77
15.9824
-4.32379
3339.88
59.865
-13.8536
3403.43
95.0696
-10.5285
3476.82
116.841
-25.2197
3539.55
130.306
-26.6217
3599.66
178.464
-27.8123
3670.96
235.312
-36.7103
3746.18
248.296
-49.1473
3808.64
292.549
-64.425
3880.48
404.032
-85.9391
3962.38
538.663
-105.05
4034.53
652.835
-116.834
4095.48
773.327
-114.315
4121.52
871.688
-101.529
4141.09
929.447
-72.9228
4160.64
997.9
-16.6063
4170.7
1084.28
78.6531
4153.8
1147.68
257.29
4087.69
1215.57
534.615
3934.75
1494.51
932.656
3583.03
2281.83
1520.98
2645.04
4010.41
2675.63
-623.586
8607.22
5314.49
4621.54
2128.73
3225.83
-28.573
-0.235811
3284.17
17.5776
-4.9714
3341.01
64.8433
-12.9243
3407.26
102.18
-11.6213
3482.38
117.346
-20.5282
3542.61
147.502
-21.2453
3601.68
197.767
-26.3448
3679.78
235.973
-39.3614
3762.34
255.278
-50.1511
3834.89
332.746
-65.3158
3916.82
455.759
-85.9421
4006.38
584.998
-101.447
4075.44
700.968
-108.598
4130.62
799.599
-103.81
4153.51
892.036
-86.3064
4159.71
936.655
-58.6586
4176.86
965.953
-0.679324
4205.68
997.699
116.715
4208.37
977.307
322.015
4172.82
941.043
614.36
4097.03
1063.09
1002.07
3922.5
1670.42
1579.09
2853.17
3439.4
3057.07
-1706.65
8623.85
8253.49
4870.97
3055.71
3223.98
-29.9342
0.696795
3285.48
16.6889
-5.76535
3343.21
69.5742
-13.5117
3411.48
102.899
-9.94829
3483.77
113.982
-15.7556
3544.35
161.274
-18.3285
3606.66
220.988
-29.0512
3691.09
246.199
-46.3636
3781.74
271.687
-55.1482
3866.57
368.469
-67.2725
3955.7
493.528
-81.4006
4043.98
610.946
-91.3174
4112.79
721.851
-96.1371
4157.92
809.859
-90.2818
4177.72
896.801
-74.5673
4173.96
949.035
-54.5775
4188.88
945.266
13.1637
4222.1
898.851
160.719
4231.35
790.663
388.265
4207.69
667.96
669.623
4185.96
656.184
996.704
4246.91
1066.74
1439.8
3237.29
3026.09
3042.9
-2360.51
8250.29
10840.2
5772.09
4462.87
3223.54
-31.4333
1.68138
3285.98
15.5528
-6.28185
3344.77
76.3839
-14.8746
3415.87
101.643
-9.22289
3486.54
109.939
-14.9826
3550.25
168.963
-16.6579
3619.26
243.21
-28.4193
3709.74
268.539
-49.818
3805.17
301.039
-59.4831
3899.3
398.931
-68.9343
3994.86
513.862
-76.7267
4080.64
615.11
-78.6163
4144.78
715.768
-78.5761
4180.48
803.165
-75.1768
4191.41
888.489
-69.1568
4185.15
938.646
-50.3287
4192.92
878.806
44.9707
4212.57
731.328
217.382
4208.81
528.313
438.67
4174.98
302.531
682.258
4168.18
187.516
914.676
4078.86
702.944
1185.72
3313.25
3020.54
2221.09
544.701
7932.91
6589.42
4173.18
2190.05
3223.65
-32.9148
2.60039
3285.25
14.4189
-6.51546
3346.4
81.5735
-15.5924
3420.4
100.333
-11.1594
3493.38
109.257
-18.7862
3561.43
176.088
-17.3755
3638.33
260.728
-24.0183
3732.45
297.254
-46.94
3828.61
337.326
-61.3338
3929.76
417.068
-71.8467
4031.1
509.871
-75.1535
4113.79
594.887
-67.5149
4169.83
687.97
-62.1184
4198.61
781.058
-64.3896
4203.28
874.545
-70.2199
4198.18
903.709
-36.5975
4190.26
782.298
92.4657
4177.84
553.255
272.832
4139.71
283.047
460.813
4075.8
-26.007
651.142
4052.73
-187.776
761.096
3941.98
756.05
739.876
4111.77
3013.17
1243.56
2595.42
8438.1
4718.42
3376.61
1048.22
3224.94
-35.7675
3.18763
3284.19
16.1137
-6.48753
3348.94
83.8359
-16.1731
3424.74
102.717
-13.4455
3502.12
116.907
-22.5935
3576.08
181.511
-17.7647
3658.61
261.401
-14.1364
3753.02
315.693
-35.2464
3851.09
367.82
-54.8237
3958.84
423.009
-67.1408
4063.35
485.987
-66.1638
4139.56
556.952
-53.5442
4187.21
645.598
-49.7442
4212.8
744.019
-60.2554
4217.34
842.702
-69.7243
4203.5
833.261
-11.3377
4167.61
645.604
134.915
4116.33
337.719
304.583
4039.66
-13.562
463.056
3929.44
-408.807
595.9
3858
-583.773
558.985
3689.77
984.797
259.301
4240.15
2603.68
1026.94
4063.88
7747.99
5164
3031.61
882.346
3224.7
-38.1178
4.08884
3284.05
17.4765
-6.82089
3352.64
84.4598
-17.178
3431.45
107.296
-16.6286
3512.93
128.949
-27.0265
3593.64
182.59
-19.6677
3677.2
246.511
-5.19881
3767.47
315.768
-21.7032
3865.02
384.159
-43.8706
3974.95
414.747
-57.1269
4077.65
442.718
-55.3558
4147.91
502.888
-44.7223
4195.82
589.5
-47.6625
4229.02
696.695
-66.0446
4233.67
798.624
-64.5978
4194.56
761.229
19.2569
4122.35
516.202
160.993
4033.11
139.869
312.579
3910.7
-296.187
454.101
3715.28
-731.862
520.042
3311.52
-781.716
381.586
2201.62
1701.38
-114.308
1338.59
2501.32
1166.75
3305.3
5718.53
4346.77
3177.96
-1601.04
3222.02
-38.6018
5.16071
3283.97
18.8892
-7.41042
3357.64
83.5081
-18.6156
3443.47
107.968
-15.622
3526.57
144.856
-26.9889
3612.36
183.044
-23.0038
3698.07
215.29
-2.49575
3786.77
283.226
-9.96094
3880.26
374.144
-29.4681
3984.36
393.739
-42.7188
4079.31
397.025
-45.619
4146.45
448.656
-41.2243
4203.34
528.983
-50.9034
4248.25
643.006
-73.2667
4245.29
748.912
-54.0512
4169.58
684.616
48.4904
4054.48
383.58
178.807
3922.94
-77.7982
315.446
3740.3
-594.246
434.009
3371.8
-1014.54
420.844
2137.14
-473.849
146.91
-1096.98
3447.61
-331.837
-5996.48
4702.12
1584.25
-6371.9
6019.5
6139.31
2167.8
-1850.1
3219.53
-36.3487
5.94092
3284.03
18.7301
-7.68757
3362.27
82.2851
-20.8161
3455.59
103.45
-14.5765
3544.02
153.898
-23.9082
3632.46
176.634
-23.4257
3717.6
169.561
-2.73373
3798.33
225.894
-3.28192
3891.46
331.136
-19.0969
3993.07
356.821
-31.4034
4082.18
359.526
-40.345
4156.82
407.612
-43.6616
4229.88
476.015
-57.7059
4284.34
598.355
-79.8192
4258.15
710.428
-41.6628
4135.06
631.194
69.8586
3964.59
274.707
191.834
3771.77
-265.612
320.16
3495.07
-825.009
397.908
2957.74
-1187.28
253.486
1553.23
-122.085
-292.56
-556.734
3146.9
-821.384
-8988.43
8497.96
1006.11
-6657.39
4319.62
6338.78
-2157.94
-9268.36
3219.02
-33.3188
6.55803
3283.33
21.3849
-7.6767
3366.18
78.0236
-22.2008
3461.25
99.2028
-15.398
3557.25
156.698
-22.8314
3652.75
163.65
-21.1347
3737.12
121.748
-0.46441
3804.77
164.276
2.41993
3897.9
255.64
-9.08321
3998.6
295.941
-21.1895
4091.3
322.333
-35.4168
4184.41
371.389
-45.0169
4274.7
427.954
-63.4154
4330.15
559.831
-85.0579
4274.81
683.288
-32.6728
4104.31
590.398
86.4692
3859.93
188.473
208.578
3568.44
-404.704
317.563
3170.38
-1014.27
349.805
2550.17
-1229.42
-82.4731
1387
-267.844
-823.467
-304.084
1644.06
-2415.84
-2998.03
5229.72
-1292.55
-580.06
782.399
3498.82
-1728.4
-7943.85
3219.69
-29.8031
7.1555
3284.29
23.1878
-7.55459
3372.13
67.9306
-22.425
3461.49
99.4656
-15.1362
3556.68
156.308
-23.6894
3659.54
138.961
-18.6531
3741.81
81.7757
-1.89822
3807.83
109.252
0.17265
3903.8
168.485
-5.61355
4007.09
232.244
-18.876
4109.04
295.877
-36.5741
4215.75
344.048
-46.4043
4319.06
384.543
-68.5229
4380.93
520.68
-87.8636
4305.98
662.966
-22.9911
4087.6
567.285
109.978
3746.98
154.371
234.691
3312.75
-429.484
308.771
2780.81
-1058.75
227.458
2080.21
-1097.37
-431.277
1093.35
-606.027
-1605.92
-120.502
-285.348
-3924.55
-269.99
44.1464
-50.6188
2136.36
-3722.17
3532.14
936.06
-7712.97
3220.11
-25.8256
7.83769
3286.04
24.7468
-7.27872
3375.75
53.778
-22.7679
3455.57
102.189
-13.6333
3547.3
147.079
-18.1108
3654.04
102.461
-12.2965
3731.97
57.7402
-9.52746
3804.34
68.0685
-11.1422
3900.35
93.8303
-10.1244
4005.75
176.152
-20.111
4115.39
263.346
-33.3062
4223.52
305.378
-37.557
4332.41
324.354
-62.8616
4410.4
448.734
-78.8471
4334.44
616
-0.326571
4075.55
542.361
145.939
3647.39
155.862
269.504
3106.18
-387.503
311.942
2502.83
-924.392
36.2449
1828.84
-939.813
-668.342
1007.72
-801.76
-1905.25
-422.067
-1015.93
-2686.2
-1565.15
-2344.05
1252.78
-405.215
-5681.65
2125.32
2725.58
-5982.9
3220.08
-21.2351
9.16009
3288.63
21.6379
-7.53365
3377.82
36.8738
-24.8376
3453.42
102.25
-10.1344
3542.98
123.589
-4.04907
3642.58
65.4974
-11.9383
3720.96
47.0238
-33.7511
3804.31
41.8389
-35.483
3898.67
51.6611
-25.2806
4007.12
136.023
-26.2644
4118.52
221.856
-27.4379
4210.7
254.34
-23.9712
4304.6
253.863
-52.2579
4388.69
347.87
-65.1957
4331.39
526.849
26.9059
4057.58
493.105
185.956
3597.34
164.274
304.344
3080.03
-334.033
287.159
2552.55
-778.933
-64.2059
2024.77
-833.782
-667.323
1228.37
-841.99
-1413.21
-178.904
-1234.47
-1464.43
-2307.91
-2733.37
1532.85
-2829.26
-4692.72
559.115
2954.35
-4812.23
3219.76
-17.5082
10.9762
3289.31
17.6655
-7.90474
3374.45
24.8468
-27.2457
3463.88
80.7526
-4.85498
3547.35
89.9822
18.042
3626.58
47.5895
-10.0927
3712.78
43.9039
-54.8856
3809.39
24.0324
-50.2879
3907.75
27.3392
-31.4197
4019.58
95.8483
-27.0991
4123.41
160.434
-20.7887
4196.02
178.023
-10.0779
4259.52
166.235
-33.7389
4324.88
232.55
-45.3796
4286.22
388.342
48.4478
4027.94
395.199
221.823
3589.71
124.589
334.411
3151.43
-316.23
256.394
2730.86
-705.951
-84.7239
2264.42
-763.879
-536.018
1341.71
-728.816
-990.003
117.539
-1264.05
-924.61
-1806.38
-2495.59
1322.95
-2189.07
-3377.32
280.413
1821.47
-2953.45
3223.25
-17.6551
12.2096
3289.8
12.7601
-8.15419
3356.62
24.4801
-28.9578
3468.02
32.4648
0.322187
3558.92
48.5115
34.3132
3635.44
41.32
-6.96492
3739.55
48.1476
-57.1902
3847.22
25.9209
-48.9149
3947.8
22.9302
-34.3097
4051.32
62.6677
-30.4023
4140.81
98.1855
-22.2286
4193.14
100.965
-8.32354
4223.23
88.3488
-22.2153
4257.49
134.279
-29.4988
4223.95
245.709
61.7929
3987.69
265.228
242.254
3566.99
57.2256
355.349
3138.46
-313.671
260.487
2721.25
-676.408
-24.0034
2280.45
-783.132
-389.873
1358.39
-586.519
-853.195
288.439
-1215.98
-697.631
-720.397
-2931.31
1358.9
-1654.62
-2414.41
819.71
1189.2
-2715.52
3227.92
-22.1042
11.5259
3294.04
16.6623
-6.69541
3349.36
45.74
-31.3008
3459.1
7.8451
-10.2888
3547.98
30.6953
29.3215
3625.84
41.0998
-6.89771
3743.55
39.1698
-50.9642
3855.83
27.7755
-50.8042
3958.99
20.7244
-49.1698
4058.72
35.5326
-46.6662
4143.66
48.138
-38.5018
4195.25
40.61
-30.3233
4215.67
31.3455
-41.8656
4227.81
54.3314
-38.5511
4187.62
94.7793
54.5571
3974.49
70.5915
229.318
3577.48
-99.7666
344.915
3142.17
-416.495
275.158
2717.17
-772.884
59.2079
2275.98
-883.203
-256.712
1254.53
-321.79
-737.883
203.377
-971.947
-494.328
-594.896
-3495.11
1618.61
-2035.19
-1832.07
1315.51
1773.4
-3756.09
3230.96
-25.9682
10.194
3298.97
25.4144
-5.42504
3376.86
54.111
-33.5893
3482.66
16.1149
-30.184
3581.27
38.0986
20.4222
3663.32
45.4665
14.7131
3771.85
29.2047
-12.2569
3892.04
18.4726
-28.733
4013.23
6.55585
-44.9484
4129.21
5.77013
-52.4152
4225.97
4.02215
-51.4247
4289.48
-5.83375
-52.0536
4313.43
-12.3265
-66.9927
4297.12
-6.05791
-49.1054
4209.09
-40.6512
50.1408
3996.5
-160.972
208.342
3645.45
-373.213
323.879
3218.03
-652.788
313.099
2742.75
-953.376
175.184
2088.06
-950.914
-90.8698
518.532