/*--------------------------------*- C++ -*----------------------------------*\
  =========                 |
  \\      /  F ield         | OpenFOAM: The Open Source CFD Toolbox
   \\    /   O peration     | Website:  https://openfoam.org
    \\  /    A nd           | Version:  11
     \\/     M anipulation  |
\*---------------------------------------------------------------------------*/
FoamFile
{
    format      ascii;
    class       volVectorField;
    location    "30";
    object      U;
}
// * * * * * * * * * * * * * * * * * * * * * * * * * * * * * * * * * * * * * //

dimensions      [0 1 -1 0 0 0 0];

internalField   nonuniform List<vector> 
17196
(
(0.993084 0.00185541 0.00168517)
(1.00467 0.00305154 0.000230468)
(1.01316 0.00376965 0.00112619)
(1.02712 0.0047113 0.0042713)
(1.03932 0.00326172 0.00630148)
(1.04658 0.00422676 0.00579246)
(1.05429 0.00551015 0.00387567)
(1.06326 0.0054374 0.00608292)
(1.07114 0.00613534 0.0101009)
(1.07765 0.00867737 0.00864611)
(1.08352 0.0114353 0.00315238)
(1.07863 0.0189861 -0.00817928)
(1.06328 0.0300269 -0.0177513)
(1.04468 0.0323068 -0.0136784)
(1.02157 0.0219241 -0.0081282)
(0.985404 0.0118032 -0.00404871)
(0.934043 0.00819527 -0.000105712)
(0.868215 0.0143986 0.0116105)
(0.78041 0.0160527 0.0325103)
(0.621516 0.0214005 0.0633208)
(0.33266 0.0182384 0.121452)
(-0.0847287 0.0126648 0.219902)
(-0.627336 0.000618564 0.347697)
(-1.46379 -0.0159842 0.373302)
(-1.64127 0.0203488 0.0132449)
(0.996566 0.000316194 0.00277385)
(1.01662 0.00185854 0.00173773)
(1.03493 0.0038939 0.00309042)
(1.05652 0.00482457 0.00682999)
(1.07455 0.00267364 0.00916851)
(1.09025 0.00511003 0.00708454)
(1.10926 0.00814854 0.00236029)
(1.13366 0.00818882 0.00393096)
(1.1599 0.0107999 0.00943744)
(1.18427 0.0158945 0.009848)
(1.21052 0.02251 0.00594438)
(1.23054 0.0326928 -0.00380416)
(1.23842 0.0456691 -0.0140662)
(1.24681 0.0538382 -0.0116825)
(1.26127 0.0477171 -0.00552438)
(1.27322 0.043068 0.0012102)
(1.26466 0.045128 0.00922757)
(1.22473 0.056411 0.0222591)
(1.14229 0.0696891 0.0437225)
(0.975208 0.0827779 0.0651054)
(0.67818 0.0903379 0.10059)
(0.251723 0.0857835 0.170174)
(-0.315769 0.0641816 0.266955)
(-1.15656 0.0254535 0.303548)
(-1.63322 0.0397454 0.0399572)
(0.995633 -0.000851996 0.00274049)
(1.01192 0.00120702 0.00192744)
(1.02653 0.00381849 0.00276367)
(1.04439 0.00420997 0.00700552)
(1.06158 0.00570343 0.00932847)
(1.0768 0.00813684 0.00631722)
(1.09104 0.0125811 0.00257994)
(1.11039 0.0156207 0.00469957)
(1.1325 0.0167929 0.00867758)
(1.15202 0.0180323 0.00822395)
(1.17216 0.027024 0.002123)
(1.18387 0.0344052 -0.00845893)
(1.18702 0.041673 -0.0151226)
(1.19267 0.0576744 -0.0111345)
(1.20669 0.0722592 -0.00323521)
(1.22314 0.0794205 0.00478691)
(1.22309 0.0822298 0.0130208)
(1.19589 0.08745 0.0270159)
(1.12467 0.107717 0.0484157)
(0.970946 0.128845 0.0685898)
(0.703581 0.154875 0.0994091)
(0.303561 0.165361 0.163469)
(-0.255226 0.161284 0.267232)
(-1.09129 0.120247 0.342493)
(-1.70124 0.0808194 0.0370966)
(0.995392 -0.00163714 0.00275428)
(1.01153 0.00152787 0.00200018)
(1.02593 0.00441012 0.0027572)
(1.04441 0.00692048 0.00778603)
(1.0615 0.0118476 0.00925701)
(1.0772 0.0119184 0.00639565)
(1.092 0.0173894 0.00367941)
(1.10869 0.0274438 0.00472884)
(1.12783 0.0256019 0.0076832)
(1.1486 0.0199879 0.00720177)
(1.16905 0.0295124 -0.00113783)
(1.17654 0.0409895 -0.0105773)
(1.17904 0.0542838 -0.0134845)
(1.18695 0.06898 -0.00872299)
(1.19846 0.0946407 0.000436353)
(1.2076 0.112441 0.00782969)
(1.20015 0.116131 0.0150208)
(1.1691 0.119474 0.030734)
(1.09372 0.136821 0.0527182)
(0.943018 0.167689 0.0733423)
(0.694286 0.206325 0.100662)
(0.320644 0.235555 0.160918)
(-0.219568 0.26311 0.265083)
(-1.03335 0.265745 0.363899)
(-2.1322 0.237435 0.0882774)
(0.995189 -0.00224967 0.00281444)
(1.01125 0.00179001 0.00199435)
(1.02605 0.00543417 0.00307696)
(1.04576 0.00939475 0.00797691)
(1.06133 0.0136206 0.00787699)
(1.0774 0.0111689 0.00548499)
(1.09626 0.0162444 0.00213275)
(1.11081 0.0311062 0.00113668)
(1.12467 0.0318574 0.00584276)
(1.14896 0.0258093 0.00828728)
(1.17539 0.0353734 -0.00159632)
(1.18338 0.0521657 -0.0113034)
(1.18161 0.0717274 -0.0122956)
(1.18865 0.0799776 -0.0055872)
(1.20176 0.102221 0.00179143)
(1.20382 0.128144 0.00679316)
(1.18855 0.139787 0.0143456)
(1.15363 0.143672 0.0309607)
(1.079 0.153161 0.0550348)
(0.934892 0.183959 0.0794781)
(0.69884 0.230128 0.109183)
(0.344323 0.284256 0.168842)
(-0.185171 0.359689 0.280294)
(-1.04676 0.507905 0.427489)
(-2.82777 0.591737 0.364947)
(0.995082 -0.00278123 0.00287672)
(1.01087 0.00198453 0.00203439)
(1.0264 0.00660768 0.00323404)
(1.04661 0.0108977 0.00808969)
(1.06056 0.0145521 0.00677882)
(1.07717 0.0114869 0.00482349)
(1.10072 0.0167663 0.00226187)
(1.11451 0.0315081 0.00099535)
(1.12367 0.0382006 0.00676426)
(1.1504 0.0393182 0.00955907)
(1.18205 0.0493826 -0.00170156)
(1.19099 0.0655404 -0.0127679)
(1.18396 0.0835919 -0.0127399)
(1.18689 0.0963102 -0.00362916)
(1.20097 0.113672 0.00388567)
(1.20146 0.137093 0.00910869)
(1.18376 0.155346 0.0171172)
(1.14922 0.163735 0.0323347)
(1.0781 0.172175 0.0575067)
(0.938956 0.195989 0.0862935)
(0.71029 0.244975 0.118871)
(0.367993 0.315849 0.176824)
(-0.148354 0.440432 0.296638)
(-1.10812 0.774979 0.500446)
(-2.51896 0.784003 0.358525)
(0.995098 -0.00331062 0.00293228)
(1.01061 0.00218981 0.00206451)
(1.02675 0.00765526 0.00338867)
(1.04745 0.0119711 0.00832416)
(1.05953 0.0164612 0.00599998)
(1.07639 0.0135149 0.00433945)
(1.10371 0.0195325 0.00368575)
(1.11816 0.0320298 0.00392136)
(1.12637 0.0413071 0.00764171)
(1.1551 0.0512577 0.00632305)
(1.18857 0.0628024 -0.00530401)
(1.19634 0.0745672 -0.0151225)
(1.18815 0.0868622 -0.0135909)
(1.1883 0.108259 -0.00247785)
(1.19985 0.126293 0.0066343)
(1.20107 0.144229 0.0141048)
(1.18464 0.163955 0.0222647)
(1.14982 0.178907 0.0355117)
(1.07676 0.186302 0.0602457)
(0.939126 0.198123 0.0936297)
(0.717654 0.235943 0.129657)
(0.392427 0.310458 0.187227)
(-0.091316 0.47424 0.311192)
(-1.11921 0.931704 0.57996)
(-2.10123 0.756867 0.337998)
(0.994901 -0.00378766 0.00299121)
(1.01024 0.00238427 0.00210722)
(1.02702 0.00877718 0.00355858)
(1.04849 0.0127647 0.00847204)
(1.0592 0.0169642 0.0057135)
(1.07633 0.0166597 0.00445193)
(1.10664 0.0236945 0.00493924)
(1.12213 0.0338982 0.00596628)
(1.1327 0.0415869 0.0066652)
(1.16386 0.0576336 0.000969556)
(1.19424 0.0703361 -0.00975375)
(1.19852 0.0786338 -0.0158707)
(1.19244 0.0885752 -0.0118349)
(1.19384 0.115738 0.000106003)
(1.20257 0.13752 0.00956356)
(1.204 0.153798 0.0187122)
(1.1887 0.174491 0.0272605)
(1.14905 0.194804 0.039171)
(1.06822 0.198721 0.0634078)
(0.931714 0.197202 0.100126)
(0.727524 0.213391 0.140135)
(0.440826 0.277405 0.196494)
(0.0118753 0.457596 0.313888)
(-1.00635 0.965171 0.645645)
(-1.8649 0.70771 0.355333)
(0.994718 -0.00420115 0.00303428)
(1.01015 0.0025852 0.00214392)
(1.02709 0.00990572 0.00361859)
(1.04919 0.0143244 0.00877584)
(1.05968 0.0168603 0.00618054)
(1.07807 0.0206892 0.00518593)
(1.11032 0.0291738 0.00558722)
(1.12621 0.0370744 0.00596055)
(1.13963 0.0430731 0.00487213)
(1.17184 0.0604535 -0.00321299)
(1.19672 0.0721549 -0.0118702)
(1.19947 0.0796304 -0.0137641)
(1.19737 0.0935224 -0.00776575)
(1.20124 0.123038 0.0022968)
(1.20748 0.146271 0.0111337)
(1.20772 0.161993 0.0199075)
(1.19069 0.181221 0.0297217)
(1.14167 0.197459 0.0432799)
(1.05562 0.192386 0.0689305)
(0.928872 0.171627 0.107111)
(0.75827 0.159759 0.15093)
(0.529595 0.194063 0.207095)
(0.172598 0.365485 0.319696)
(-0.791882 0.899272 0.719903)
(-1.67077 0.624696 0.477167)
(0.994526 -0.00459042 0.00307615)
(1.00999 0.00283727 0.00220468)
(1.02762 0.0106735 0.00346058)
(1.04973 0.0156246 0.00904933)
(1.06054 0.0174888 0.00695695)
(1.08145 0.0226734 0.00594809)
(1.11489 0.0319711 0.0051448)
(1.13031 0.0380664 0.00423689)
(1.14563 0.0444127 0.00233619)
(1.17686 0.0592482 -0.00587698)
(1.19839 0.0692015 -0.0111583)
(1.20353 0.0792164 -0.00965934)
(1.20636 0.099397 -0.00346424)
(1.21153 0.128286 0.00301992)
(1.21576 0.152651 0.0109348)
(1.2144 0.170528 0.0186615)
(1.19208 0.185448 0.0312434)
(1.13516 0.191439 0.0497803)
(1.04836 0.173332 0.0766922)
(0.938334 0.12808 0.111929)
(0.808035 0.0824084 0.153534)
(0.645087 0.0754827 0.209538)
(0.367857 0.217134 0.33263)
(-0.611441 0.706165 0.77231)
(-1.39726 0.483261 0.917582)
(0.994303 -0.00492647 0.00315339)
(1.00983 0.0029707 0.0021662)
(1.02795 0.0114085 0.00344211)
(1.05009 0.0164883 0.00926344)
(1.061 0.0190852 0.00702636)
(1.0844 0.0231877 0.00660498)
(1.11871 0.0314017 0.00561465)
(1.13327 0.0372078 0.00370047)
(1.14799 0.0455795 0.00115138)
(1.17858 0.0577731 -0.00535694)
(1.20042 0.0681886 -0.00741607)
(1.2087 0.0823796 -0.00460208)
(1.21557 0.105934 6.17508e-05)
(1.22155 0.131181 0.00422198)
(1.22505 0.155589 0.0100429)
(1.22078 0.174202 0.0179562)
(1.19071 0.180189 0.0347512)
(1.12872 0.17088 0.0579861)
(1.04276 0.132162 0.083329)
(0.948339 0.0574258 0.111206)
(0.856898 -0.0313088 0.140907)
(0.764389 -0.0924414 0.194832)
(0.536565 0.0301544 0.354717)
(-0.411852 0.511981 0.722484)
(-0.62552 0.231757 0.171752)
(0.994076 -0.00522383 0.00326051)
(1.00961 0.00296291 0.00209672)
(1.0286 0.0122255 0.00350424)
(1.05068 0.0168031 0.00871457)
(1.06114 0.0202569 0.00601189)
(1.08598 0.0245551 0.00729419)
(1.12149 0.0283488 0.00770255)
(1.13514 0.0338376 0.00468567)
(1.14938 0.0446358 0.000767444)
(1.18053 0.0559308 -0.0038648)
(1.20451 0.0685885 -0.00416747)
(1.21643 0.0860875 -0.0015332)
(1.22629 0.110423 0.00167479)
(1.23311 0.13209 0.00504624)
(1.23722 0.156131 0.00976638)
(1.22938 0.172466 0.0187589)
(1.19126 0.171068 0.0384013)
(1.12128 0.146433 0.063155)
(1.03152 0.0847285 0.0860048)
(0.940473 -0.0197784 0.102854)
(0.875086 -0.152456 0.112858)
(0.85704 -0.275099 0.165267)
(0.616233 -0.107272 0.371074)
(-0.216391 0.420575 0.772565)
(-0.368574 0.115068 0.19021)
(0.993826 -0.00553282 0.00337549)
(1.00955 0.00292902 0.00199439)
(1.02877 0.0128209 0.00360809)
(1.05136 0.0167897 0.00831541)
(1.06205 0.0214852 0.00503148)
(1.08576 0.0284029 0.00781454)
(1.12226 0.0264107 0.0116758)
(1.13825 0.0306404 0.00820241)
(1.15198 0.0429733 0.00289757)
(1.18237 0.054306 -0.00023839)
(1.20775 0.0685885 0.00051632)
(1.22419 0.0878076 0.00224003)
(1.23615 0.110622 0.00338201)
(1.24403 0.130805 0.00562113)
(1.24754 0.15234 0.009836)
(1.23345 0.162798 0.0203658)
(1.18598 0.153342 0.040154)
(1.10371 0.112234 0.063814)
(1.00066 0.0289314 0.0836348)
(0.900801 -0.103252 0.0868174)
(0.85258 -0.274527 0.0686763)
(0.915409 -0.455241 0.108302)
(0.730911 -0.279258 0.379359)
(0.0304635 0.245586 0.935746)
(-0.123229 0.0108664 0.274976)
(0.993492 -0.00580398 0.00347751)
(1.00945 0.00286268 0.00193582)
(1.02929 0.01315 0.00365981)
(1.0526 0.0161099 0.00786584)
(1.06362 0.0202555 0.00400896)
(1.08406 0.0303109 0.00729085)
(1.12062 0.027282 0.0152613)
(1.14331 0.0287079 0.0126691)
(1.15957 0.0411903 0.00602358)
(1.1888 0.0514776 0.00354622)
(1.21687 0.0650737 0.00506544)
(1.23725 0.0852386 0.00524647)
(1.25004 0.107031 0.00384593)
(1.25841 0.128415 0.0046998)
(1.25821 0.146454 0.010136)
(1.23707 0.151612 0.0216216)
(1.17945 0.133917 0.0390209)
(1.07955 0.0776872 0.0607756)
(0.951077 -0.0233857 0.0763789)
(0.8312 -0.176492 0.0641899)
(0.789567 -0.374486 0.0050156)
(0.941767 -0.598784 -0.0243762)
(0.969697 -0.472455 0.204216)
(0.383443 0.06586 1.11919)
(0.162876 -0.0561337 0.36535)
(0.993142 -0.00595771 0.00352817)
(1.00953 0.00280266 0.00195396)
(1.02941 0.0129886 0.00337234)
(1.05242 0.0154435 0.00815043)
(1.06495 0.0177985 0.00484034)
(1.08339 0.0278115 0.00798652)
(1.11654 0.0277374 0.0185954)
(1.14375 0.028016 0.019009)
(1.16423 0.041271 0.0113038)
(1.19465 0.0512879 0.00778408)
(1.22703 0.0617318 0.00849213)
(1.25178 0.0803928 0.00642687)
(1.26492 0.10146 0.00320002)
(1.2699 0.123596 0.00369521)
(1.26391 0.139641 0.0100355)
(1.23433 0.139564 0.0206858)
(1.16178 0.110722 0.0360395)
(1.03779 0.0404294 0.0563552)
(0.876811 -0.0752762 0.0669322)
(0.729934 -0.242106 0.0371383)
(0.700324 -0.451376 -0.0954404)
(0.955482 -0.694817 -0.369156)
(1.3461 -0.629619 -0.483084)
(0.665514 -0.0845148 1.07763)
(0.22655 -0.108338 0.427994)
(0.992844 -0.00598129 0.00359758)
(1.0094 0.00279456 0.00198734)
(1.02988 0.0124031 0.00327279)
(1.05252 0.0151205 0.00816656)
(1.06575 0.0178776 0.00541082)
(1.08302 0.0243127 0.00895221)
(1.11406 0.0251309 0.0224534)
(1.14517 0.0262183 0.0259197)
(1.16817 0.0385365 0.0176974)
(1.19984 0.0503698 0.00963796)
(1.23649 0.0592308 0.00602175)
(1.2638 0.0739357 0.00270559)
(1.2754 0.0930084 0.000592309)
(1.27668 0.115923 0.00207675)
(1.26595 0.131317 0.00782178)
(1.22869 0.127948 0.0171975)
(1.13995 0.0909714 0.0336042)
(0.987207 0.0105219 0.0538196)
(0.788945 -0.114221 0.0608847)
(0.609404 -0.28441 0.00869331)
(0.599692 -0.502144 -0.253315)
(0.944106 -0.790941 -0.934943)
(2.09022 -0.80284 -1.72399)
(1.54324 -0.537319 0.616184)
(1.5663 -0.255678 0.312717)
(0.992479 -0.00585864 0.00372742)
(1.00921 0.0027475 0.00202621)
(1.02987 0.0117247 0.00339941)
(1.05301 0.0137796 0.00814076)
(1.06651 0.019354 0.00596726)
(1.08177 0.0219309 0.00914694)
(1.1108 0.024187 0.0248533)
(1.14551 0.0269544 0.0320178)
(1.1717 0.0351217 0.0260786)
(1.20363 0.0462608 0.0127052)
(1.24174 0.0543404 0.00282021)
(1.26634 0.0636502 -0.00150011)
(1.27477 0.0798085 -0.0016525)
(1.27468 0.101004 0.00059641)
(1.2616 0.115855 0.00491815)
(1.21707 0.112185 0.0143174)
(1.11114 0.0726893 0.0335106)
(0.927823 -0.0121214 0.0545932)
(0.6879 -0.135944 0.0605094)
(0.46908 -0.295253 -0.0262932)
(0.467927 -0.534225 -0.474758)
(0.892261 -0.977716 -1.72711)
(2.63402 -0.816925 -3.25951)
(1.39379 -0.622312 -0.961223)
(1.02354 -0.0760072 -0.0138882)
(0.991983 -0.00560701 0.00393405)
(1.00872 0.0026241 0.00219405)
(1.02961 0.0105428 0.00363747)
(1.05463 0.0124422 0.00876065)
(1.06898 0.0190868 0.00743994)
(1.08371 0.0174128 0.0099947)
(1.11267 0.0246487 0.0214359)
(1.14839 0.0334595 0.0306164)
(1.17669 0.0402632 0.0289354)
(1.20911 0.0487395 0.0144904)
(1.24417 0.0543132 0.00207591)
(1.26403 0.057124 -0.00192024)
(1.26914 0.0677931 -0.00119279)
(1.26866 0.0834958 0.00136176)
(1.25601 0.096808 0.00507586)
(1.20647 0.0943699 0.0153797)
(1.08321 0.0567148 0.0366528)
(0.872653 -0.02431 0.0592746)
(0.590858 -0.133423 0.0624251)
(0.310712 -0.269103 -0.066431)
(0.325433 -0.480779 -0.639621)
(0.772636 -0.723657 -2.05732)
(1.86184 -0.0112525 -2.55105)
(0.676431 0.0333804 -0.705561)
(0.93598 0.192577 -0.171949)
(0.991363 -0.00513722 0.00418033)
(1.00803 0.00231644 0.00246503)
(1.02883 0.00885578 0.00388784)
(1.05627 0.0108995 0.00985645)
(1.07102 0.0151954 0.00975594)
(1.0884 0.0135741 0.0118735)
(1.12142 0.0219978 0.0167757)
(1.15662 0.032749 0.0249664)
(1.18551 0.0391381 0.0248767)
(1.21673 0.0460576 0.0117427)
(1.24591 0.0506297 0.000862664)
(1.26345 0.0516611 -0.00111643)
(1.26663 0.0582778 0.000284164)
(1.26296 0.0680634 0.00351893)
(1.24766 0.0786527 0.00765811)
(1.19185 0.0769609 0.0192248)
(1.05434 0.0429108 0.0420116)
(0.824092 -0.0286295 0.0664208)
(0.505601 -0.116693 0.0616182)
(0.220693 -0.210177 -0.0906278)
(0.342039 -0.323445 -0.574357)
(0.595929 -0.292942 -1.37015)
(1.00011 0.130735 -1.25609)
(0.263964 0.223613 -0.259165)
(0.78191 0.308683 -0.174809)
(0.99075 -0.00443473 0.00443806)
(1.00713 0.00187985 0.00287984)
(1.02801 0.00768337 0.00406029)
(1.05732 0.00971042 0.0116448)
(1.07267 0.0123548 0.0134246)
(1.09205 0.0170238 0.0130116)
(1.12806 0.0235584 0.0140805)
(1.1624 0.02932 0.0202913)
(1.19323 0.0315228 0.0194799)
(1.22361 0.0355578 0.0087815)
(1.24822 0.0393098 0.00113847)
(1.26736 0.0428475 0.000489613)
(1.273 0.0474571 0.00166708)
(1.26592 0.0541604 0.00535951)
(1.24367 0.0631749 0.0104977)
(1.17927 0.0629084 0.0229531)
(1.03239 0.0332263 0.0466918)
(0.789869 -0.0279602 0.0722826)
(0.442108 -0.104789 0.0585911)
(0.261111 -0.165121 -0.0826503)
(0.419865 -0.225349 -0.42616)
(0.447085 -0.1388 -0.866589)
(0.659192 0.129852 -0.623375)
(0.169948 0.261956 -0.0311477)
(0.722074 0.340275 -0.136889)
(0.990676 -0.00363625 0.00464682)
(1.00663 0.00150443 0.00330874)
(1.02748 0.0071058 0.00358411)
(1.058 0.00907635 0.0134783)
(1.07393 0.00795033 0.016505)
(1.09445 0.0143681 0.0121473)
(1.12933 0.0193303 0.00981606)
(1.16413 0.0234665 0.0126285)
(1.19549 0.0264185 0.0110034)
(1.22248 0.0287659 0.00387772)
(1.24768 0.0310846 -0.0003601)
(1.26941 0.0339166 -0.000386594)
(1.27766 0.0367283 0.00155236)
(1.26881 0.042758 0.00635058)
(1.23815 0.0508895 0.0128678)
(1.164 0.0494123 0.0247857)
(1.00975 0.0225228 0.0486847)
(0.760315 -0.0305644 0.0728624)
(0.420914 -0.10698 0.0534669)
(0.302712 -0.15787 -0.0635104)
(0.445096 -0.174409 -0.324955)
(0.351922 -0.0802527 -0.567737)
(0.521962 0.0591106 -0.313065)
(0.236381 0.269211 0.0395419)
(0.680314 0.336503 -0.111881)
(0.991105 -0.00316351 0.00479928)
(1.00636 0.00161316 0.00373189)
(1.02756 0.00652328 0.00318915)
(1.057 0.0113657 0.014731)
(1.07133 0.0110156 0.0154805)
(1.09204 0.0121213 0.00725316)
(1.12858 0.0126762 0.00721065)
(1.16243 0.014559 0.0111192)
(1.18782 0.0196215 0.0111064)
(1.21169 0.0213583 0.00702786)
(1.23575 0.023857 0.00469045)
(1.25872 0.0270062 0.00544965)
(1.26913 0.0318262 0.00666754)
(1.25658 0.0395491 0.0112516)
(1.21558 0.0456914 0.0173437)
(1.134 0.0385931 0.0272674)
(0.979585 0.0128136 0.048915)
(0.728565 -0.0360586 0.0694286)
(0.443637 -0.110968 0.050442)
(0.312857 -0.150826 -0.0401776)
(0.45563 -0.118893 -0.25047)
(0.258813 -0.0935484 -0.377324)
(0.385996 -0.101146 -0.133023)
(0.261328 0.273673 0.00852884)
(0.647184 0.346135 -0.149262)
(0.991521 -0.00299824 0.00490458)
(1.0066 0.00276669 0.00372474)
(1.02915 0.0048743 0.00318863)
(1.06037 0.00958886 0.0147842)
(1.07117 0.0171598 0.011882)
(1.08956 0.020023 -0.00198846)
(1.12565 0.0177767 -0.00306647)
(1.15989 0.0132413 0.00250222)
(1.18601 0.0121147 0.00515139)
(1.20971 0.0103314 0.00429009)
(1.23382 0.0113229 0.00435118)
(1.25495 0.0144282 0.00655515)
(1.26072 0.0190865 0.00835966)
(1.23961 0.0269517 0.0146386)
(1.18759 0.0294818 0.0224666)
(1.09556 0.0175009 0.032303)
(0.936833 -0.00920071 0.0509048)
(0.680337 -0.0612957 0.0678941)
(0.452744 -0.136753 0.0521836)
(0.301129 -0.152526 -0.0270257)
(0.414725 -0.0529517 -0.229469)
(0.113122 -0.127544 -0.27072)
(0.0785205 -0.338591 -0.0029679)
(0.0485926 0.297751 -0.0231101)
(0.84432 0.463119 -0.211008)
(0.991546 -0.00268663 0.00482166)
(1.00802 0.00405523 0.00343297)
(1.03054 0.0070223 0.00313439)
(1.06461 0.003587 0.0136236)
(1.07496 0.00775062 0.0147363)
(1.08674 0.0151454 0.00201449)
(1.1149 0.0165248 -0.000931461)
(1.14622 0.0131883 0.00263538)
(1.17408 0.010836 0.00267061)
(1.20092 0.0100286 0.000199413)
(1.22742 0.0103078 -0.00115957)
(1.24834 0.0094583 -0.000235244)
(1.25503 0.009383 0.00166557)
(1.23333 0.0143049 0.0105852)
(1.17965 0.0117301 0.0230774)
(1.0821 -0.0086644 0.0354011)
(0.934883 -0.0450208 0.0527492)
(0.727717 -0.105791 0.0694723)
(0.517824 -0.18762 0.063208)
(0.309288 -0.155767 -0.0101878)
(0.164241 0.0415404 -0.255764)
(-0.264723 -0.089085 -0.177696)
(-0.905195 -0.50891 0.187969)
(-2.14524 0.285788 0.141244)
(-1.15004 0.688744 -0.139951)
(0.988561 -0.00258372 0.00351517)
(1.00123 0.000446217 0.00166012)
(1.02096 0.00315393 0.00135543)
(1.05507 -0.0010418 0.00696123)
(1.07017 -0.00217096 0.00966373)
(1.08366 0.00170045 0.00135603)
(1.11129 0.0042839 -0.00107695)
(1.14103 0.00518765 0.000929873)
(1.16488 0.00600669 -0.000969988)
(1.18545 0.00745752 -0.00367166)
(1.2047 0.00861697 -0.00479929)
(1.22003 0.00818791 -0.00435647)
(1.22591 0.0077447 -0.00476764)
(1.21479 0.0115939 0.00232504)
(1.18326 0.0128731 0.018781)
(1.0805 0.000565588 0.037294)
(0.857237 -0.0251739 0.0565121)
(0.489897 -0.0647628 0.0741745)
(0.00838728 -0.119438 0.0670139)
(-0.727709 -0.0800494 -0.103698)
(-0.271312 0.239053 -0.571409)
(0.864796 0.167736 -0.362431)
(0.787609 -0.0888646 -0.0470209)
(-1.47859 0.133702 -0.0918602)
(2.83249 0.351235 -0.336655)
(0.995924 0.0021583 0.00131738)
(1.00781 0.00341514 -0.00233585)
(1.01796 0.00502523 -0.0039351)
(1.03141 0.00730541 -0.00326362)
(1.04073 0.00648334 -0.00723055)
(1.04741 0.00411993 -0.0143029)
(1.06093 -0.000609793 -0.0178653)
(1.07933 -0.00225039 -0.0147067)
(1.08802 0.00157347 -0.0121215)
(1.0891 0.0078552 -0.017479)
(1.09068 0.0139213 -0.0266329)
(1.08466 0.0248269 -0.0429749)
(1.08256 0.033085 -0.04958)
(1.08504 0.0311024 -0.0413697)
(1.07248 0.0216047 -0.0377632)
(1.05082 0.0157058 -0.0380159)
(1.02786 0.0154572 -0.0380892)
(1.00417 0.0186736 -0.0232992)
(0.960021 0.0298116 0.0146707)
(0.864236 0.0455554 0.0726431)
(0.706299 0.0565029 0.141132)
(0.507269 0.0667609 0.208465)
(0.309589 0.0759137 0.239926)
(0.153609 0.0710093 0.182834)
(-0.0114096 0.0526629 0.0662265)
(1.00074 0.000300809 0.00133345)
(1.02356 0.00215773 -0.0021811)
(1.04555 0.00384772 -0.00430378)
(1.07056 0.00714859 -0.00254324)
(1.08744 0.00581485 -0.00558738)
(1.09905 0.00339183 -0.0152124)
(1.12276 0.00249433 -0.0209398)
(1.15731 0.0018829 -0.0170509)
(1.18213 0.00447043 -0.0129784)
(1.19822 0.011514 -0.0178448)
(1.21311 0.0171262 -0.0255378)
(1.22351 0.0283113 -0.0403824)
(1.24355 0.0440049 -0.0492945)
(1.27357 0.0495998 -0.0453182)
(1.30187 0.0467328 -0.0409974)
(1.32938 0.0472367 -0.0372983)
(1.3492 0.0492159 -0.0337216)
(1.35827 0.0535661 -0.0198065)
(1.343 0.0748392 0.0163042)
(1.27204 0.109686 0.0638915)
(1.13863 0.144035 0.125505)
(0.953868 0.176122 0.197584)
(0.739389 0.201923 0.2432)
(0.534165 0.188637 0.199099)
(0.322339 0.122287 0.074213)
(0.999188 -0.000982716 0.00125756)
(1.01762 0.0015564 -0.00198413)
(1.03612 0.00280372 -0.00475228)
(1.05668 0.0059247 -0.00255211)
(1.07025 0.00587829 -0.00473452)
(1.08216 0.0065907 -0.0144863)
(1.10277 0.0149205 -0.0201352)
(1.13106 0.0169277 -0.015281)
(1.15265 0.0134294 -0.01001)
(1.16589 0.0137982 -0.0128116)
(1.17856 0.015058 -0.020928)
(1.19052 0.0217973 -0.0361915)
(1.20889 0.039915 -0.0460693)
(1.23067 0.0566995 -0.045449)
(1.25184 0.0757473 -0.0416935)
(1.2736 0.0861573 -0.0359155)
(1.29164 0.0871067 -0.0282196)
(1.30858 0.0908706 -0.00874613)
(1.30643 0.111563 0.0290288)
(1.25144 0.152533 0.0742477)
(1.13561 0.210684 0.134402)
(0.963503 0.275211 0.216296)
(0.74574 0.332217 0.287694)
(0.521335 0.332115 0.252836)
(0.309203 0.204909 0.0840753)
(0.999055 -0.0015975 0.00122841)
(1.01726 0.00152212 -0.00190044)
(1.03624 0.00483369 -0.00475961)
(1.05672 0.00889954 -0.00269771)
(1.06952 0.00927129 -0.00470741)
(1.08348 0.0102842 -0.0140355)
(1.10368 0.0163615 -0.0205921)
(1.12787 0.0201495 -0.0163103)
(1.14835 0.0200712 -0.00972492)
(1.16253 0.0218425 -0.010753)
(1.1766 0.0251699 -0.0201787)
(1.19128 0.0361898 -0.0334469)
(1.21009 0.0575485 -0.0419375)
(1.23188 0.0738382 -0.0431158)
(1.24849 0.0958937 -0.0395858)
(1.25978 0.110178 -0.032363)
(1.27327 0.117396 -0.020759)
(1.28921 0.125103 0.00258802)
(1.28805 0.142123 0.0401621)
(1.2419 0.183106 0.0880395)
(1.13955 0.253649 0.151549)
(0.975445 0.345222 0.245649)
(0.748674 0.443318 0.348643)
(0.482516 0.482653 0.333321)
(0.242723 0.290801 0.102154)
(0.999261 -0.00213985 0.00121259)
(1.01747 0.00168532 -0.00184809)
(1.03665 0.00619232 -0.00464601)
(1.05655 0.0102452 -0.00275016)
(1.06842 0.00927798 -0.00563145)
(1.08335 0.00813807 -0.0147047)
(1.10498 0.0129549 -0.0216448)
(1.12995 0.0225338 -0.0179299)
(1.15106 0.0290362 -0.00880081)
(1.16499 0.0316958 -0.00672579)
(1.17958 0.0364706 -0.0163408)
(1.19797 0.0474227 -0.0301826)
(1.21624 0.0703237 -0.0381024)
(1.23613 0.0836379 -0.0370518)
(1.25425 0.0978744 -0.0359744)
(1.26561 0.117583 -0.0322483)
(1.2748 0.135953 -0.0198346)
(1.28498 0.147649 0.00568835)
(1.28259 0.163622 0.045961)
(1.24456 0.204763 0.101839)
(1.15496 0.278443 0.178269)
(1.00024 0.389294 0.289412)
(0.762451 0.538051 0.426517)
(0.417587 0.656773 0.445498)
(0.142906 0.41539 0.126496)
(0.999399 -0.00270771 0.0011858)
(1.01742 0.00194155 -0.00168912)
(1.03712 0.00703297 -0.00487209)
(1.05645 0.0119103 -0.00220793)
(1.06655 0.0115944 -0.00598467)
(1.08385 0.00936407 -0.0139366)
(1.1098 0.0190096 -0.0194095)
(1.13583 0.0349934 -0.0159195)
(1.1547 0.0404253 -0.00630927)
(1.16795 0.0364533 -0.00264042)
(1.18462 0.0426035 -0.0130523)
(1.20757 0.0559008 -0.0284445)
(1.22665 0.0770752 -0.0362326)
(1.2444 0.0956449 -0.0326077)
(1.26447 0.108999 -0.0320699)
(1.27825 0.129896 -0.0301686)
(1.2833 0.151901 -0.0189851)
(1.28655 0.16656 0.00704567)
(1.28474 0.183398 0.0519552)
(1.25586 0.219604 0.117572)
(1.18168 0.289025 0.209994)
(1.04396 0.41351 0.340886)
(0.80766 0.613687 0.516736)
(0.368421 0.858339 0.6084)
(0.0628837 0.545794 0.170447)
(0.999528 -0.00326636 0.00117393)
(1.01743 0.00214146 -0.00151609)
(1.03764 0.00811596 -0.00519363)
(1.05714 0.012993 -0.000786357)
(1.06531 0.0150722 -0.00615044)
(1.08574 0.0131615 -0.0135114)
(1.11738 0.0239628 -0.0171053)
(1.14183 0.039844 -0.0135428)
(1.15449 0.0407029 -0.00679736)
(1.1684 0.0356238 -0.00465239)
(1.1911 0.0468312 -0.0153558)
(1.21889 0.0668201 -0.0292641)
(1.23963 0.0853188 -0.0353903)
(1.25621 0.109441 -0.0312339)
(1.27448 0.123744 -0.0291962)
(1.28841 0.140414 -0.0263842)
(1.2913 0.159205 -0.0146898)
(1.29247 0.176061 0.0123829)
(1.29549 0.191252 0.0613472)
(1.2782 0.215696 0.135967)
(1.22008 0.277885 0.241496)
(1.10205 0.410082 0.393549)
(0.882472 0.655742 0.618907)
(0.326555 1.07435 0.879266)
(-0.086282 0.645979 0.250898)
(0.999455 -0.0037927 0.00123899)
(1.01728 0.00236026 -0.00142303)
(1.03801 0.00907999 -0.00528427)
(1.05816 0.013783 0.000390198)
(1.06495 0.0177196 -0.00656443)
(1.087 0.0186409 -0.0135828)
(1.12277 0.0267866 -0.0155965)
(1.14462 0.0370817 -0.0119963)
(1.15251 0.0370414 -0.00720804)
(1.17 0.0401672 -0.00786428)
(1.20172 0.0577207 -0.018)
(1.23181 0.0810306 -0.0274812)
(1.25318 0.0980015 -0.0310211)
(1.26948 0.119136 -0.0286442)
(1.28463 0.134256 -0.0265004)
(1.2965 0.144127 -0.022046)
(1.29883 0.156801 -0.00692533)
(1.30217 0.173761 0.0230442)
(1.30954 0.18645 0.0750002)
(1.30373 0.199614 0.155621)
(1.26504 0.247852 0.268876)
(1.1702 0.375492 0.433924)
(0.986447 0.647031 0.711979)
(0.261226 1.28132 1.32903)
(-0.343027 0.714832 0.406015)
(0.999353 -0.00426258 0.00138079)
(1.01716 0.00262033 -0.00148598)
(1.0383 0.0095601 -0.00489673)
(1.05931 0.0155673 0.000954322)
(1.06606 0.0194574 -0.00659593)
(1.08839 0.0237092 -0.0138399)
(1.1252 0.0294137 -0.0151323)
(1.14529 0.0342953 -0.0117936)
(1.15283 0.036421 -0.00724874)
(1.17639 0.0483504 -0.0105003)
(1.21509 0.0695118 -0.0190341)
(1.24441 0.0912925 -0.0239695)
(1.26552 0.108667 -0.0255369)
(1.28204 0.123319 -0.0266419)
(1.29375 0.138562 -0.0251082)
(1.30171 0.142837 -0.0176521)
(1.30479 0.150076 0.00151403)
(1.31279 0.162889 0.0357909)
(1.32387 0.167875 0.0922108)
(1.3283 0.168322 0.175196)
(1.30938 0.195702 0.288637)
(1.23975 0.300374 0.455028)
(1.1164 0.582302 0.798996)
(-0.0398264 1.37274 1.9108)
(-0.628059 0.737597 0.645608)
(0.999099 -0.00460034 0.00158526)
(1.01669 0.00271884 -0.00159065)
(1.03899 0.0102292 -0.00436881)
(1.06066 0.0167712 0.00110914)
(1.0674 0.0191916 -0.00609694)
(1.08963 0.0253062 -0.0139014)
(1.12552 0.0319712 -0.0156422)
(1.14516 0.0350221 -0.0125251)
(1.15615 0.0391261 -0.00749894)
(1.18721 0.0556305 -0.0119017)
(1.22809 0.0766558 -0.0178293)
(1.2553 0.0952105 -0.0205812)
(1.27611 0.112661 -0.0219202)
(1.29253 0.125562 -0.0245767)
(1.30065 0.138779 -0.022601)
(1.30456 0.146088 -0.0139347)
(1.3091 0.15009 0.00871961)
(1.31963 0.150979 0.0496485)
(1.33179 0.140838 0.111195)
(1.34212 0.126536 0.190783)
(1.33793 0.130996 0.291306)
(1.29403 0.204483 0.437417)
(1.23089 0.492895 0.864919)
(-0.41817 1.54442 2.88658)
(-0.540414 1.03962 1.15088)
(0.999052 -0.00481134 0.00182875)
(1.01652 0.00254314 -0.00173897)
(1.03943 0.0115151 -0.00364033)
(1.06153 0.0161406 0.00149959)
(1.06884 0.01712 -0.00603342)
(1.09238 0.025283 -0.0137286)
(1.12712 0.0357466 -0.0159435)
(1.14644 0.0391795 -0.0132364)
(1.16338 0.0441723 -0.00827311)
(1.19953 0.0609821 -0.0121537)
(1.2392 0.0791894 -0.0158379)
(1.26592 0.0947724 -0.0179604)
(1.28651 0.111245 -0.0197504)
(1.30066 0.126063 -0.021634)
(1.30517 0.139778 -0.0201987)
(1.30637 0.15117 -0.0131467)
(1.31013 0.146832 0.0144397)
(1.32029 0.130263 0.0644563)
(1.33013 0.105604 0.127405)
(1.33959 0.0783929 0.19672)
(1.3451 0.0643568 0.272315)
(1.3267 0.122492 0.394929)
(1.04905 0.485158 0.710169)
(0.231524 1.24651 1.62791)
(0.521116 0.716651 0.233705)
(0.999087 -0.00503904 0.00209232)
(1.0165 0.0023611 -0.00188682)
(1.03956 0.0127031 -0.00282867)
(1.0616 0.0154384 0.00192482)
(1.07089 0.0161379 -0.00604253)
(1.09753 0.0261151 -0.0133376)
(1.13036 0.0389235 -0.0160106)
(1.14938 0.0429139 -0.0141454)
(1.17204 0.0492155 -0.0103013)
(1.21076 0.0646292 -0.012936)
(1.24905 0.0805606 -0.0154243)
(1.27587 0.0940914 -0.0173363)
(1.29517 0.109352 -0.0191779)
(1.30629 0.124814 -0.0199182)
(1.30936 0.140634 -0.0198611)
(1.30824 0.148578 -0.0130667)
(1.30968 0.133523 0.0210524)
(1.31479 0.103794 0.0773838)
(1.31768 0.0699911 0.136827)
(1.32012 0.0318846 0.18954)
(1.33735 0.00900375 0.233305)
(1.31994 0.106222 0.3222)
(0.947671 0.46197 0.461919)
(0.903631 1.28829 1.40426)
(1.09437 0.543193 -0.0723608)
(0.99925 -0.00537439 0.00229503)
(1.01682 0.00235686 -0.00192281)
(1.03961 0.0133735 -0.00256907)
(1.0614 0.0157524 0.00173776)
(1.07328 0.0174622 -0.00544462)
(1.10386 0.0276789 -0.012644)
(1.13486 0.0399729 -0.0158654)
(1.15223 0.0454388 -0.0152762)
(1.17938 0.0534149 -0.0118508)
(1.22102 0.0665687 -0.0120558)
(1.2593 0.0813244 -0.0136149)
(1.28461 0.0943358 -0.0156392)
(1.3003 0.107765 -0.0179205)
(1.30939 0.121614 -0.0186316)
(1.31383 0.136408 -0.0198022)
(1.30919 0.136687 -0.00865948)
(1.30499 0.111865 0.0309956)
(1.30018 0.0723169 0.0867864)
(1.29427 0.0294947 0.138656)
(1.2897 -0.0191246 0.172466)
(1.31812 -0.0411659 0.173245)
(1.2644 0.128246 0.171729)
(0.872895 0.364402 0.202376)
(1.13008 1.20422 1.4426)
(1.5457 0.471409 -0.224258)
(0.999161 -0.00579955 0.00254666)
(1.01697 0.0026109 -0.00204598)
(1.03981 0.0129668 -0.00222978)
(1.06156 0.0164411 0.00147876)
(1.07661 0.0201064 -0.00511602)
(1.11068 0.0301423 -0.0117363)
(1.14099 0.0402374 -0.0150494)
(1.15497 0.0484584 -0.0178302)
(1.18211 0.0557893 -0.0152911)
(1.22716 0.0637793 -0.0133714)
(1.2659 0.0757496 -0.014306)