/*--------------------------------*- C++ -*----------------------------------*\
| =========                 |                                                 |
| \\      /  F ield         | OpenFOAM: The Open Source CFD Toolbox           |
|  \\    /   O peration     | Version:  2306                                  |
|   \\  /    A nd           | Website:  www.openfoam.com                      |
|    \\/     M anipulation  |                                                 |
\*---------------------------------------------------------------------------*/
FoamFile
{
    version     2.0;
    format      ascii;
    arch        "LSB;label=32;scalar=64";
    class       volScalarField;
    location    "0.8";
    object      p;
}
// * * * * * * * * * * * * * * * * * * * * * * * * * * * * * * * * * * * * * //

dimensions      [0 2 -2 0 0 0 0];

internalField   nonuniform List<scalar> 
288632
(
36.3831
36.3758
36.3851
36.4052
36.4341
36.471
36.5146
36.5612
36.6232
36.4395
36.9929
36.5101
36.7131
0.340148
0.518819
-0.0741521
0.183974
0.141174
0.123426
0.106941
0.0890774
0.0701546
0.0504601
0.0298531
0.00971901
36.3774
36.3741
36.384
36.4043
36.4333
36.4701
36.5138
36.5604
36.6224
36.4396
36.9918
36.5087
36.7133
0.340203
0.520167
-0.074904
0.1837
0.140723
0.122991
0.106567
0.0887693
0.0699144
0.0502887
0.0297493
0.00968345
36.3735
36.3716
36.3821
36.4024
36.4314
36.4682
36.5119
36.5587
36.6206
36.441
36.9903
36.5078
36.7133
0.339716
0.518028
-0.0763453
0.182461
0.139693
0.122108
0.105816
0.0881533
0.0694351
0.0499468
0.0295442
0.00961479
36.3695
36.3683
36.3792
36.3996
36.4286
36.4654
36.5091
36.556
36.6178
36.443
36.9875
36.507
36.7131
0.338832
0.517441
-0.0780436
0.180935
0.138223
0.120801
0.104701
0.0872379
0.0687231
0.0494392
0.0292401
0.0095135
36.3651
36.3644
36.3755
36.396
36.4249
36.4617
36.5053
36.5524
36.614
36.4457
36.9838
36.5062
36.7127
0.337016
0.514786
-0.080438
0.178776
0.136273
0.119082
0.103235
0.086035
0.067788
0.0487725
0.0288411
0.0093808
36.3604
36.3599
36.3711
36.3916
36.4204
36.457
36.5007
36.548
36.6093
36.4488
36.9797
36.5052
36.7121
0.334138
0.512
-0.083312
0.176104
0.133877
0.116974
0.101438
0.0845606
0.066642
0.0479558
0.0283524
0.0092184
36.3553
36.3549
36.3661
36.3865
36.4151
36.4516
36.4952
36.5427
36.6039
36.4518
36.9756
36.5042
36.7115
0.330657
0.508565
-0.086661
0.172951
0.131065
0.114504
0.0993322
0.0828344
0.0653007
0.0470001
0.0277807
0.00902849
36.3498
36.3494
36.3606
36.3807
36.4092
36.4455
36.4891
36.5367
36.5978
36.4556
36.9711
36.5035
36.711
0.326621
0.504597
-0.0904424
0.169358
0.127874
0.111704
0.0969474
0.0808799
0.0637824
0.0459185
0.0271339
0.00881369
36.3441
36.3436
36.3546
36.3745
36.4027
36.4388
36.4823
36.5301
36.5914
36.4601
36.9661
36.5032
36.7108
0.322092
0.500159
-0.0946126
0.165377
0.124348
0.108613
0.0943162
0.0787243
0.0621085
0.0447263
0.0264209
0.00857701
36.3381
36.3376
36.3483
36.3679
36.3957
36.4316
36.475
36.5231
36.5847
36.4654
36.9611
36.5036
36.7113
0.317136
0.495323
-0.0991161
0.161068
0.120535
0.105274
0.0914756
0.0763983
0.0603029
0.0434406
0.0256521
0.00832183
36.332
36.3313
36.3417
36.361
36.3884
36.424
36.4674
36.5158
36.5781
36.4717
36.9561
36.505
36.7128
0.311831
0.490164
-0.103896
0.156494
0.116491
0.101735
0.0884669
0.0739356
0.0583918
0.04208
0.0248388
0.00805188
36.3258
36.3249
36.335
36.3538
36.3809
36.4163
36.4597
36.5086
36.5717
36.479
36.9515
36.5075
36.7156
0.306258
0.484765
-0.108882
0.151725
0.112276
0.098049
0.0853345
0.0713729
0.0564036
0.040665
0.0239929
0.00777118
36.3197
36.3185
36.3283
36.3467
36.3733
36.4084
36.452
36.5015
36.5657
36.4872
36.9476
36.5117
36.7201
0.300502
0.479211
-0.113999
0.146833
0.107953
0.0942714
0.0821262
0.0687491
0.0543688
0.0392171
0.0231276
0.007484
36.3136
36.3123
36.3216
36.3395
36.3658
36.4007
36.4444
36.4949
36.5605
36.4966
36.9447
36.5177
36.7268
0.294659
0.473588
-0.119172
0.141896
0.103591
0.0904609
0.0788916
0.066105
0.0523189
0.0377589
0.0222561
0.0071948
36.3078
36.3062
36.3152
36.3326
36.3584
36.3931
36.4372
36.4888
36.5561
36.5069
36.943
36.5259
36.7358
0.288797
0.467982
-0.124316
0.136991
0.0992577
0.0866784
0.0756824
0.0634827
0.0502865
0.0363135
0.0213925
0.00690821
36.3023
36.3005
36.309
36.3259
36.3513
36.3859
36.4304
36.4834
36.5528
36.5183
36.9429
36.5364
36.7475
0.28304
0.462484
-0.129346
0.132197
0.0950244
0.0829852
0.0725506
0.0609247
0.0483046
0.0349044
0.0205506
0.00662885
36.2972
36.2952
36.3032
36.3196
36.3446
36.3792
36.4242
36.4788
36.5506
36.5304
36.9443
36.549
36.7617
0.277451
0.457182
-0.134174
0.127593
0.0909614
0.079443
0.0695484
0.0584735
0.0464061
0.0335547
0.0197444
0.00636135
36.2927
36.2903
36.2979
36.3138
36.3385
36.373
36.4186
36.475
36.5495
36.5431
36.9473
36.5636
36.7784
0.272155
0.452158
-0.138714
0.123255
0.0871378
0.076112
0.0667266
0.0561705
0.0446228
0.0322873
0.0189873
0.00611023
36.2888
36.2861
36.2932
36.3086
36.3329
36.3674
36.4137
36.472
36.5494
36.5561
36.9515
36.5797
36.797
0.267218
0.447493
-0.142884
0.119256
0.0836199
0.07305
0.064134
0.0540554
0.0429854
0.0311237
0.0182925
0.00587979
36.2855
36.2825
36.2891
36.3041
36.328
36.3626
36.4096
36.4697
36.5502
36.5689
36.9566
36.5967
36.8167
0.262723
0.443262
-0.146605
0.115665
0.08047
0.0703111
0.0618163
0.0521652
0.0415225
0.0300844
0.0176719
0.00567405
36.2832
36.2797
36.2857
36.3002
36.3239
36.3585
36.4062
36.4681
36.5515
36.5809
36.9622
36.6137
36.8365
0.258738
0.439282
-0.14981
0.112545
0.0777449
0.0679446
0.0598147
0.0505334
0.0402599
0.0291876
0.0171366
0.00549665
36.2817
36.2776
36.2831
36.2972
36.3206
36.3552
36.4035
36.467
36.5531
36.5917
36.9677
36.6299
36.8554
0.255798
0.437005
-0.152348
0.109974
0.0754955
0.0659938
0.0581656
0.0491894
0.0392203
0.0284494
0.016696
0.00535076
36.2814
36.2764
36.2812
36.2949
36.3181
36.3528
36.4016
36.4664
36.5546
36.6007
36.9728
36.6438
36.8723
0.253609
0.432763
-0.154513
0.107792
0.073744
0.0644952
0.0568992
0.0481576
0.0384225
0.0278829
0.0163582
0.00523907
36.2821
36.2759
36.28
36.2934
36.3165
36.3512
36.4004
36.4661
36.5559
36.6072
36.9764
36.6542
36.8855
0.251851
0.432962
-0.155645
0.106669
0.0726231
0.0634831
0.0560394
0.047457
0.037881
0.0274985
0.0161294
0.00516373
36.2867
36.2761
36.2795
36.2927
36.3157
36.3505
36.3999
36.4662
36.5568
36.6111
36.9792
36.6592
36.8945
0.249425
0.429559
-0.15619
0.105611
0.0719474
0.0629524
0.0555986
0.0470998
0.0376054
0.027303
0.0160138
0.00512652
36.3767
36.3733
36.3832
36.4034
36.4323
36.4691
36.5126
36.5591
36.621
36.4378
36.9902
36.5074
36.7122
0.340123
0.519482
-0.0737946
0.182984
0.140741
0.123153
0.106782
0.0890182
0.07017
0.0505189
0.0299186
0.00975272
36.371
36.3716
36.3822
36.4025
36.4315
36.4682
36.5118
36.5584
36.6201
36.439
36.9862
36.506
36.7121
0.340224
0.52076
-0.0745595
0.182691
0.140275
0.122707
0.106401
0.0887053
0.0699262
0.050345
0.0298135
0.00971673
36.3671
36.3691
36.3802
36.4006
36.4296
36.4663
36.5099
36.5566
36.6183
36.4406
36.9838
36.505
36.7122
0.339736
0.5186
-0.0760195
0.181438
0.139234
0.121811
0.105639
0.0880804
0.0694403
0.0499986
0.0296057
0.00964722
36.3631
36.3658
36.3773
36.3978
36.4268
36.4634
36.507
36.5538
36.6154
36.4428
36.9805
36.504
36.712
0.338844
0.517948
-0.0777576
0.179874
0.137737
0.120483
0.104507
0.0871516
0.0687184
0.0494842
0.0292976
0.00954466
36.3587
36.3618
36.3736
36.3941
36.423
36.4596
36.5032
36.5501
36.6114
36.4455
36.9765
36.503
36.7116
0.336977
0.515269
-0.0801891
0.177679
0.135753
0.118737
0.103018
0.0859312
0.0677701
0.0488085
0.0288934
0.00941027
36.3539
36.3573
36.3692
36.3897
36.4184
36.4549
36.4984
36.5455
36.6065
36.448
36.9725
36.5019
36.7109
0.334065
0.512419
-0.0831126
0.174959
0.133316
0.116594
0.101193
0.0844351
0.066608
0.0479807
0.0283983
0.0092458
36.3488
36.3523
36.3642
36.3845
36.4131
36.4494
36.4928
36.54
36.6008
36.4509
36.9679
36.5006
36.7101
0.330531
0.508913
-0.086521
0.171747
0.130456
0.114084
0.0990551
0.0826832
0.0652475
0.0470118
0.0278189
0.00905343
36.3434
36.3468
36.3586
36.3787
36.407
36.4431
36.4864
36.5337
36.5945
36.4545
36.9628
36.4995
36.7094
0.326432
0.504864
-0.0903707
0.168089
0.127209
0.111237
0.0966327
0.0806993
0.0637073
0.0459151
0.0271633
0.00883582
36.3376
36.341
36.3526
36.3725
36.4004
36.4363
36.4794
36.5269
36.5877
36.4587
36.9573
36.4988
36.709
0.321832
0.500336
-0.0946175
0.164035
0.12362
0.108094
0.0939594
0.0785108
0.0620089
0.044706
0.0264406
0.00859599
36.3316
36.3349
36.3462
36.3657
36.3934
36.4289
36.472
36.5195
36.5806
36.4636
36.9514
36.4986
36.7091
0.316799
0.495402
-0.0992056
0.159646
0.119739
0.104699
0.0910728
0.0761487
0.0601763
0.0434018
0.025661
0.00833737
36.3255
36.3286
36.3396
36.3587
36.386
36.4212
36.4641
36.5119
36.5735
36.4694
36.9456
36.4992
36.7101
0.311413
0.490137
-0.104077
0.154986
0.115622
0.101099
0.0880145
0.0736473
0.0582363
0.0420213
0.0248361
0.00806372
36.3193
36.3221
36.3328
36.3515
36.3783
36.4132
36.4561
36.5043
36.5665
36.4761
36.94
36.501
36.7123
0.30575
0.484624
-0.10916
0.150126
0.111329
0.0973482
0.0848299
0.0710436
0.0562177
0.0405853
0.0239781
0.00777907
36.3131
36.3157
36.326
36.3442
36.3706
36.4052
36.4481
36.4968
36.5599
36.4837
36.9349
36.5042
36.7162
0.299905
0.478954
-0.114379
0.14514
0.106926
0.0935036
0.0815671
0.0683772
0.0541511
0.0391156
0.0231
0.00748778
36.307
36.3094
36.3193
36.337
36.3629
36.3972
36.4402
36.4897
36.554
36.4922
36.9307
36.5093
36.7221
0.293959
0.47321
-0.119655
0.140107
0.102482
0.0896246
0.0782769
0.0656895
0.0520687
0.037635
0.0222156
0.00719438
36.3011
36.3033
36.3128
36.33
36.3553
36.3894
36.4326
36.4832
36.549
36.5018
36.9276
36.5163
36.7304
0.288009
0.467485
-0.124904
0.135106
0.0980658
0.0857729
0.0750116
0.0630233
0.0500036
0.0361672
0.0213388
0.00690353
36.2956
36.2976
36.3065
36.3232
36.3481
36.382
36.4255
36.4773
36.545
36.5122
36.926
36.5256
36.7412
0.282146
0.461869
-0.130037
0.130217
0.0937507
0.0820115
0.0718244
0.0604218
0.0479893
0.0347357
0.020484
0.00661997
36.2905
36.2922
36.3007
36.3168
36.3412
36.375
36.4189
36.4722
36.5421
36.5234
36.926
36.537
36.7547
0.276483
0.456453
-0.134967
0.125521
0.0896083
0.0784029
0.0687683
0.0579285
0.0460593
0.0333644
0.0196651
0.0063484
36.2859
36.2873
36.2953
36.3109
36.3349
36.3685
36.413
36.4679
36.5404
36.5352
36.9275
36.5504
36.7706
0.271092
0.451323
-0.139605
0.121095
0.0857091
0.0750087
0.0658953
0.0555854
0.044246
0.0320763
0.018896
0.0060934
36.282
36.283
36.2905
36.3056
36.3292
36.3627
36.4077
36.4644
36.5397
36.5472
36.9304
36.5654
36.7884
0.266077
0.446559
-0.143865
0.117016
0.0821211
0.071888
0.0632551
0.0534329
0.0425808
0.0308936
0.01819
0.00585937
36.2788
36.2794
36.2864
36.301
36.3242
36.3577
36.4033
36.4617
36.5399
36.5592
36.9342
36.5814
36.8075
0.261498
0.442241
-0.147667
0.113352
0.0789078
0.0690961
0.0608943
0.051509
0.0410928
0.029837
0.0175594
0.00565038
36.2764
36.2766
36.283
36.2971
36.32
36.3534
36.3996
36.4597
36.5407
36.5705
36.9387
36.5977
36.8268
0.257458
0.438187
-0.150943
0.110169
0.0761274
0.0666834
0.0588552
0.0498479
0.0398084
0.0289252
0.0170153
0.00547013
36.2749
36.2745
36.2803
36.2939
36.3165
36.35
36.3967
36.4583
36.5418
36.5807
36.9434
36.6131
36.8454
0.254458
0.435845
-0.153546
0.107541
0.0738318
0.0646944
0.057175
0.0484795
0.0387507
0.0281744
0.0165674
0.00532186
36.2746
36.2732
36.2784
36.2916
36.314
36.3474
36.3946
36.4574
36.543
36.5891
36.9478
36.6263
36.8619
0.252233
0.431577
-0.15575
0.105328
0.0720478
0.0631665
0.0558846
0.047429
0.0379389
0.0275984
0.016224
0.00520833
36.2753
36.2727
36.2772
36.2901
36.3123
36.3458
36.3933
36.4569
36.5441
36.5953
36.9509
36.6361
36.8751
0.250419
0.431724
-0.156914
0.104172
0.070897
0.0621324
0.0550085
0.0467156
0.0373878
0.0272074
0.0159913
0.00513174
36.2798
36.273
36.2767
36.2894
36.3115
36.3451
36.3928
36.4569
36.5448
36.5989
36.9533
36.642
36.8838
0.248014
0.428374
-0.157472
0.103105
0.0702152
0.0615968
0.0545602
0.0463521
0.0371075
0.0270087
0.0158739
0.00509392
36.3713
36.3692
36.3796
36.3998
36.4286
36.4652
36.5085
36.5549
36.6165
36.4358
36.9854
36.5034
36.7091
0.339981
0.51806
-0.0727451
0.181127
0.140087
0.122828
0.106658
0.0890642
0.0703321
0.0507329
0.0301117
0.0098439
36.3656
36.3675
36.3786
36.3989
36.4277
36.4643
36.5076
36.5541
36.6156
36.4372
36.9806
36.5019
36.7093
0.340108
0.519342
-0.0735213
0.18081
0.139603
0.122367
0.106266
0.0887423
0.0700817
0.0505545
0.030004
0.00980712
36.3617
36.365
36.3765
36.397
36.4258
36.4623
36.5057
36.5522
36.6135
36.439
36.9775
36.5007
36.7094
0.33959
0.517145
-0.0750172
0.179524
0.138532
0.121444
0.105482
0.0880998
0.0695826
0.050199
0.029791
0.00973594
36.3576
36.3616
36.3736
36.3941
36.4229
36.4593
36.5026
36.5492
36.6103
36.4412
36.9735
36.4994
36.7091
0.338669
0.516408
-0.0768223
0.177893
0.136983
0.120076
0.104316
0.0871447
0.0688411
0.0496711
0.0294752
0.00963086
36.3532
36.3577
36.3698
36.3904
36.419
36.4554
36.4986
36.5452
36.606
36.4433
36.9692
36.4981
36.7084
0.336706
0.513668
-0.0793309
0.17562
0.134932
0.118273
0.102783
0.0858894
0.0678668
0.0489776
0.0290606
0.00949315
36.3484
36.3531
36.3654
36.3858
36.4143
36.4505
36.4936
36.5403
36.6007
36.4454
36.9644
36.4964
36.7073
0.33369
0.510687
-0.0823557
0.172803
0.132414
0.116063
0.100903
0.0843501
0.0666724
0.0481276
0.0285526
0.00932457
36.3432
36.348
36.3603
36.3805
36.4088
36.4447
36.4877
36.5343
36.5945
36.448
36.9589
36.4945
36.7059
0.330024
0.50704
-0.085882
0.169476
0.129456
0.113472
0.098699
0.082547
0.0652738
0.0471324
0.0279581
0.00912733
36.3377
36.3425
36.3546
36.3746
36.4026
36.4382
36.481
36.5276
36.5875
36.451
36.9525
36.4926
36.7044
0.325779
0.502829
-0.0898688
0.165686
0.126097
0.110533
0.0962015
0.0805043
0.0636898
0.0460057
0.027285
0.00890412
36.3319
36.3366
36.3485
36.3682
36.3958
36.4311
36.4736
36.5202
36.5799
36.4545
36.9453
36.4908
36.703
0.321014
0.498121
-0.0942692
0.161485
0.122384
0.107286
0.0934442
0.07825
0.0619424
0.0447629
0.0265427
0.00865803
36.3259
36.3304
36.342
36.3613
36.3885
36.4234
36.4656
36.5122
36.572
36.4587
36.9376
36.4894
36.7018
0.315799
0.49299
-0.0990273
0.156935
0.118366
0.103777
0.0904655
0.0758159
0.0600562
0.0434217
0.0257418
0.00839253
36.3197
36.324
36.3353
36.3542
36.3808
36.4153
36.4572
36.5038
36.5638
36.4635
36.9295
36.4885
36.7013
0.310217
0.487516
-0.10408
0.152102
0.114102
0.100055
0.0873081
0.0732369
0.0580583
0.0420016
0.0248938
0.00811145
36.3134
36.3175
36.3284
36.3468
36.3729
36.4069
36.4486
36.4954
36.5556
36.4689
36.9212
36.4885
36.7016
0.304347
0.481783
-0.109357
0.14706
0.109654
0.0961749
0.0840186
0.0705512
0.0559786
0.0405235
0.0240114
0.00781895
36.3071
36.311
36.3215
36.3393
36.3649
36.3985
36.44
36.487
36.5478
36.4751
36.9131
36.4897
36.7034
0.29828
0.475881
-0.11478
0.141886
0.105089
0.0921957
0.0806467
0.0677994
0.0538483
0.0390101
0.0231079
0.00751946
36.301
36.3046
36.3146
36.3319
36.3569
36.39
36.4314
36.479
36.5405
36.4821
36.9056
36.4925
36.7068
0.292113
0.469902
-0.120266
0.136659
0.100479
0.0881788
0.0772448
0.0650243
0.0517008
0.0374847
0.0221975
0.00721765
36.2951
36.2984
36.308
36.3246
36.349
36.3817
36.4231
36.4714
36.5341
36.4898
36.8991
36.4972
36.7125
0.285944
0.463939
-0.125727
0.131464
0.0958967
0.0841883
0.0738669
0.0622699
0.04957
0.0359717
0.0212945
0.00691833
36.2895
36.2926
36.3016
36.3177
36.3415
36.3738
36.4152
36.4645
36.5286
36.4984
36.8939
36.5039
36.7205
0.279865
0.45809
-0.131072
0.126383
0.0914167
0.0802893
0.0705681
0.0595812
0.0474908
0.0344955
0.0204135
0.00662637
36.2843
36.2871
36.2956
36.3111
36.3343
36.3663
36.4079
36.4584
36.5243
36.5076
36.8902
36.5128
36.7311
0.273983
0.452447
-0.136208
0.121502
0.0871141
0.076547
0.0674036
0.057003
0.0454975
0.0330807
0.0195694
0.00634663
36.2797
36.2822
36.2902
36.305
36.3277
36.3594
36.4013
36.453
36.5212
36.5174
36.8882
36.5238
36.7442
0.268386
0.4471
-0.141042
0.1169
0.0830625
0.0730255
0.0644272
0.0545791
0.0436241
0.0317512
0.0187762
0.00608385
36.2757
36.2778
36.2853
36.2995
36.3217
36.3531
36.3954
36.4485
36.5192
36.5276
36.8877
36.5365
36.7594
0.263169
0.442135
-0.145486
0.112657
0.0793327
0.0697863
0.061691
0.0523516
0.0419029
0.03053
0.0180478
0.00584257
36.2724
36.2741
36.281
36.2947
36.3164
36.3476
36.3903
36.4449
36.5181
36.5378
36.8885
36.5504
36.776
0.258423
0.437631
-0.149454
0.108846
0.0759913
0.0668873
0.0592433
0.0503597
0.0403643
0.0294387
0.0173969
0.00562703
36.2699
36.2712
36.2775
36.2907
36.3119
36.343
36.386
36.4421
36.5178
36.5475
36.8903
36.565
36.7933
0.254213
0.43343
-0.152874
0.105535
0.0730992
0.0643812
0.0571285
0.0486394
0.0390359
0.0284965
0.0168352
0.00544105
36.2684
36.2691
36.2748
36.2874
36.3083
36.3393
36.3826
36.44
36.518
36.5564
36.8928
36.5786
36.81
0.251086
0.430945
-0.155608
0.102796
0.0707104
0.0623148
0.0553855
0.0472219
0.0379416
0.0277206
0.0163727
0.00528801
36.2681
36.2678
36.2728
36.285
36.3056
36.3365
36.3802
36.4385
36.5185
36.5639
36.8952
36.5904
36.8251
0.248773
0.426549
-0.157902
0.100505
0.0688555
0.0607258
0.0540463
0.0461334
0.0371015
0.0271251
0.0160179
0.00517079
36.2688
36.2672
36.2716
36.2834
36.3038
36.3346
36.3786
36.4377
36.519
36.5694
36.8968
36.5993
36.8372
0.246914
0.42666
-0.159131
0.0992919
0.0676537
0.0596493
0.0531368
0.0453942
0.0365311
0.0267209
0.0157774
0.00509167
36.2733
36.2675
36.271
36.2827
36.303
36.3338
36.3779
36.4374
36.5194
36.5728
36.8982
36.6046
36.8451
0.244424
0.423202
-0.159732
0.0981958
0.0669473
0.0590953
0.052672
0.0450174
0.0362409
0.0265153
0.0156559
0.00505253
36.3649
36.3636
36.3742
36.3944
36.423
36.4593
36.5023
36.5485
36.6096
36.4326
36.9778
36.4979
36.7043
0.338893
0.516308
-0.0708419
0.17845
0.139208
0.122441
0.106566
0.0892138
0.0706415
0.0511036
0.030434
0.0099929
36.3591
36.3618
36.3732
36.3935
36.4221
36.4583
36.5014
36.5476
36.6086
36.4341
36.9725
36.4962
36.7044
0.338989
0.517559
-0.0716474
0.178097
0.138698
0.121959
0.106156
0.0888787
0.0703813
0.0509184
0.0303224
0.00995494
36.3553
36.3593
36.3711
36.3915
36.4201
36.4563
36.4993
36.5455
36.6063
36.4359
36.9687
36.4946
36.7044
0.33844
0.515289
-0.0732041
0.176753
0.137576
0.120995
0.105338
0.0882097
0.0698625
0.0505495
0.0301016
0.00988127
36.3511
36.3559
36.3681
36.3885
36.417
36.4531
36.496
36.5422
36.6027
36.4377
36.9642
36.4931
36.7039
0.337457
0.514421
-0.0751062
0.175032
0.135954
0.119565
0.104122
0.0872152
0.0690915
0.0500013
0.0297741
0.00977246
36.3467
36.3519
36.3643
36.3847
36.413
36.4489
36.4917
36.5379
36.5979
36.4392
36.9594
36.4912
36.7027
0.335312
0.511575
-0.0777348
0.17264
0.133802
0.117679
0.102522
0.0859074
0.0680782
0.049281
0.029344
0.00962978
36.3418
36.3473
36.3597
36.38
36.4081
36.4438
36.4863
36.5324
36.5919
36.4409
36.9535
36.4888
36.7008
0.332135
0.508403
-0.0809099
0.169675
0.13116
0.115366
0.100558
0.0843031
0.0668354
0.0483978
0.0288168
0.00945505
36.3366
36.3421
36.3545
36.3746
36.4024
36.4377
36.48
36.5258
36.5849
36.4428
36.9464
36.4858
36.6983
0.328281
0.504541
-0.0846154
0.166174
0.128055
0.112653
0.0982563
0.0824229
0.0653794
0.0473633
0.0281995
0.00925052
36.3311
36.3365
36.3487
36.3685
36.396
36.4309
36.4727
36.5184
36.577
36.445
36.9381
36.4826
36.6954
0.323801
0.500084
-0.0888094
0.162184
0.124528
0.109574
0.0956457
0.0802918
0.0637296
0.0461913
0.0275002
0.00901892
36.3252
36.3305
36.3425
36.3619
36.3889
36.4233
36.4647
36.5101
36.5682
36.4476
36.9285
36.4791
36.6922
0.318775
0.495102
-0.0934431
0.15776
0.120625
0.106171
0.0927615
0.0779385
0.0619084
0.0448979
0.0267286
0.00876341
36.319
36.3242
36.3359
36.3548
36.3812
36.4151
36.456
36.5011
36.5589
36.4505
36.9177
36.4756
36.6887
0.31327
0.48967
-0.0984587
0.152965
0.1164
0.10249
0.0896438
0.0753957
0.0599413
0.0435011
0.0258955
0.00848755
36.3127
36.3177
36.329
36.3474
36.3732
36.4065
36.4469
36.4916
36.5491
36.4537
36.9059
36.4722
36.6854
0.307384
0.483873
-0.10379
0.147871
0.111913
0.0985829
0.0863366
0.0726997
0.0578563
0.0420212
0.0250128
0.00819531
36.3064
36.311
36.3219
36.3397
36.3649
36.3975
36.4374
36.482
36.5392
36.4573
36.8934
36.4692
36.6824
0.301184
0.477799
-0.109364
0.142552
0.107229
0.0945071
0.0828886
0.06989
0.0556843
0.0404798
0.0240936
0.00789096
36.3
36.3044
36.3148
36.332
36.3564
36.3884
36.4278
36.4723
36.5293
36.4613
36.8804
36.4669
36.6801
0.294777
0.471543
-0.115098
0.13709
0.102419
0.0903238
0.0793515
0.0670091
0.053458
0.0389003
0.0231518
0.00757912
36.2938
36.2979
36.3078
36.3243
36.3479
36.3792
36.4182
36.4628
36.5199
36.4657
36.8675
36.4657
36.679
0.288258
0.465202
-0.120903
0.13157
0.0975572
0.0860978
0.0757802
0.0641017
0.051212
0.0373073
0.022202
0.00726465
36.2877
36.2916
36.3009
36.3167
36.3396
36.3702
36.4088
36.4537
36.5112
36.4706
36.8552
36.4659
36.6794
0.28173
0.458877
-0.126688
0.126079
0.0927213
0.0818963
0.0722315
0.0612139
0.0489819
0.035726
0.0212593
0.00695253
36.2821
36.2856
36.2944
36.3094
36.3316
36.3615
36.3998
36.4451
36.5035
36.476
36.844
36.468
36.6819
0.275295
0.452668
-0.132356
0.120707
0.0879903
0.0777882
0.0687634
0.0583929
0.0468041
0.0341821
0.0203391
0.00664789
36.2768
36.28
36.2882
36.3025
36.3239
36.3533
36.3914
36.4374
36.497
36.4821
36.8343
36.4722
36.6868
0.269073
0.446676
-0.137807
0.115541
0.0834435
0.0738424
0.0654341
0.055686
0.0447151
0.0327014
0.0194566
0.0063558
36.2721
36.275
36.2826
36.2962
36.3168
36.3456
36.3836
36.4304
36.4916
36.4887
36.8264
36.4786
36.6941
0.263143
0.440997
-0.142943
0.110671
0.0791594
0.0701269
0.0623008
0.0531394
0.0427504
0.0313092
0.018627
0.00608125
36.268
36.2705
36.2775
36.2904
36.3104
36.3387
36.3767
36.4244
36.4874
36.4958
36.8204
36.487
36.7038
0.257625
0.435723
-0.147668
0.106178
0.0752134
0.0667073
0.0594184
0.0507977
0.0409443
0.0300298
0.0178647
0.00582901
36.2646
36.2667
36.2731
36.2854
36.3047
36.3326
36.3706
36.4193
36.4844
36.503
36.8162
36.497
36.7153
0.2526
0.430938
-0.151892
0.102141
0.0716764
0.063645
0.0568386
0.0487027
0.039329
0.0288857
0.0171831
0.00560352
36.2621
36.2637
36.2695
36.2811
36.2999
36.3274
36.3654
36.4151
36.4822
36.51
36.8136
36.5076
36.7279
0.248132
0.426504
-0.155534
0.0986338
0.0686136
0.0609965
0.0546085
0.0468923
0.0379336
0.0278975
0.0165946
0.00540886
36.2606
36.2615
36.2666
36.2777
36.296
36.3232
36.3613
36.4119
36.4809
36.5166
36.8121
36.5182
36.7406
0.244807
0.423819
-0.158457
0.0957344
0.0660838
0.0588122
0.0527696
0.0454
0.0367837
0.0270834
0.0161098
0.0052486
36.2602
36.2602
36.2646
36.2752
36.2931
36.32
36.3583
36.4096
36.4801
36.5222
36.8112
36.5276
36.7523
0.24235
0.419226
-0.160898
0.0933078
0.0641147
0.0571298
0.0513561
0.0442537
0.0359006
0.0264583
0.0157378
0.00512578
36.2608
36.2596
36.2633
36.2735
36.2911
36.3179
36.3563
36.4081
36.4797
36.5265
36.8101
36.5346
36.7618
0.240433
0.419293
-0.16222
0.0920165
0.0628399
0.0559897
0.0503959
0.043475
0.0353009
0.0260339
0.0154855
0.00504281
36.2653
36.2598
36.2627
36.2727
36.2902
36.317
36.3554
36.4076
36.4797
36.5296
36.8096
36.5383
36.7682
0.237797
0.415727
-0.162874
0.0908736
0.0620943
0.0554055
0.0499054
0.0430781
0.0349956
0.0258179
0.0153579
0.00500168
36.3574
36.3565
36.3673
36.3873
36.4156
36.4514
36.4941
36.5399
36.6004
36.4284
36.9676
36.4905
36.6974
0.337285
0.513898
-0.0681233
0.174959
0.138082
0.121989
0.106506
0.0894719
0.0711032
0.051635
0.0308877
0.0102005
36.3517
36.3547
36.3662
36.3863
36.4146
36.4504
36.493
36.5389
36.5992
36.4299
36.962
36.4886
36.6975
0.337343
0.515112
-0.0689681
0.17456
0.137537
0.121478
0.106074
0.0891191
0.0708299
0.051441
0.030771
0.0101609
36.3477
36.3521
36.3641
36.3843
36.4125
36.4482
36.4907
36.5365
36.5966
36.4313
36.9579
36.4868
36.6972
0.336728
0.512742
-0.0706078
0.17314
0.136349
0.120458
0.10521
0.0884148
0.0702848
0.0510541
0.0305399
0.010084
36.3436
36.3487
36.361
36.3812
36.4093
36.4449
36.4872
36.5329
36.5925
36.4324
36.9529
36.4847
36.6962
0.33565
0.511699
-0.0726389
0.171294
0.134625
0.118945
0.103926
0.0873673
0.0694745
0.050479
0.0301969
0.00997019
36.3391
36.3446
36.3571
36.3773
36.4051
36.4404
36.4825
36.528
36.5871
36.4334
36.9469
36.482
36.6942
0.333271
0.508701
-0.0754307
0.168739
0.132338
0.116947
0.102236
0.0859894
0.068409
0.0497229
0.0297461
0.00982092
36.3342
36.3399
36.3524
36.3724
36.4
36.435
36.4767
36.5219
36.5803
36.4344
36.9394
36.4785
36.6912
0.329869
0.505272
-0.0788087
0.165576
0.129528
0.114496
0.100161
0.0842981
0.0671016
0.0487954
0.0291933
0.009638
36.3289
36.3347
36.3471
36.3668
36.394
36.4285
36.4697
36.5146
36.5722
36.4355
36.9303
36.4741
36.6873
0.32573
0.501118
-0.082757
0.161839
0.126225
0.111619
0.0977268
0.0823148
0.0655689
0.0477082
0.0285456
0.00942373
36.3232
36.3289
36.3411
36.3605
36.3872
36.4211
36.4618
36.5061
36.563
36.4367
36.9192
36.4689
36.6823
0.320927
0.496326
-0.0872316
0.157578
0.122469
0.108352
0.094964
0.080065
0.0638309
0.0464758
0.0278113
0.00918091
36.3172
36.3228
36.3347
36.3536
36.3797
36.413
36.453
36.4967
36.5527
36.4378
36.9062
36.4631
36.6763
0.315538
0.490969
-0.0921817
0.152851
0.118311
0.104737
0.0919093
0.0775786
0.0619108
0.0451145
0.0270004
0.0089128
36.311
36.3164
36.3279
36.3462
36.3716
36.4042
36.4434
36.4864
36.5415
36.439
36.8912
36.4566
36.6694
0.309639
0.485128
-0.0975468
0.147726
0.113806
0.100824
0.0886043
0.0748897
0.0598351
0.0436433
0.0261241
0.00862308
36.3046
36.3097
36.3208
36.3385
36.3631
36.3948
36.4332
36.4755
36.5295
36.44
36.8743
36.4495
36.6618
0.303314
0.478891
-0.103257
0.142276
0.109017
0.0966671
0.0850953
0.0720362
0.0576331
0.042083
0.0251949
0.00831586
36.2981
36.3029
36.3135
36.3305
36.3543
36.385
36.4225
36.4641
36.5171
36.4409
36.8556
36.442
36.6536
0.29666
0.472353
-0.109234
0.136582
0.104013
0.0923263
0.0814332
0.0690596
0.055337
0.0404564
0.0242263
0.00799563
36.2916
36.2962
36.3062
36.3224
36.3452
36.3751
36.4116
36.4526
36.5045
36.4417
36.8356
36.4344
36.6448
0.289776
0.465613
-0.115391
0.130729
0.0988696
0.0878667
0.0776728
0.0660046
0.0529812
0.0387881
0.023233
0.00766721
36.2852
36.2895
36.2989
36.3143
36.3362
36.365
36.4007
36.4411
36.4922
36.4423
36.8147
36.4269
36.636
0.282767
0.458778
-0.121633
0.124809
0.0936661
0.083357
0.0738724
0.0629184
0.0506023
0.0371039
0.0222303
0.0073357
36.2791
36.283
36.2918
36.3063
36.3272
36.355
36.3899
36.4299
36.4804
36.443
36.7939
36.4201
36.6278
0.275736
0.451955
-0.127861
0.118915
0.0884854
0.0788691
0.0700923
0.0598502
0.0482381
0.0354305
0.0212341
0.00700637
36.2733
36.2769
36.285
36.2987
36.3186
36.3454
36.3794
36.4191
36.4695
36.4439
36.7739
36.4147
36.6209
0.268813
0.445253
-0.133969
0.113144
0.0834125
0.0744768
0.0663946
0.0568502
0.0459273
0.0337953
0.0202608
0.00668464
36.2679
36.2711
36.2786
36.2914
36.3103
36.3361
36.3694
36.4091
36.4597
36.4452
36.7554
36.4112
36.616
0.262101
0.438783
-0.139852
0.107592
0.0785332
0.0702543
0.0628417
0.0539688
0.0437086
0.0322257
0.0193267
0.0063759
36.2631
36.2659
36.2727
36.2847
36.3027
36.3275
36.3601
36.3999
36.4511
36.4469
36.739
36.4098
36.6136
0.25572
0.432649
-0.145402
0.102354
0.073932
0.0662748
0.0594951
0.0512559
0.0416203
0.0307487
0.0184478
0.00608544
36.2589
36.2613
36.2675
36.2786
36.2957
36.3197
36.3517
36.3917
36.4438
36.4491
36.725
36.4107
36.6137
0.249773
0.426952
-0.150513
0.0975189
0.0696907
0.0626093
0.056414
0.0487593
0.0396992
0.0293902
0.0176396
0.00581837
36.2554
36.2574
36.2629
36.2733
36.2895
36.3127
36.3443
36.3845
36.4378
36.4516
36.7133
36.4132
36.6159
0.244356
0.421783
-0.155088
0.0931735
0.0658864
0.0593245
0.0536543
0.0465241
0.0379798
0.0281747
0.0169165
0.00557944
36.2528
36.2543
36.2591
36.2687
36.2842
36.3068
36.338
36.3785
36.4329
36.4544
36.7038
36.4162
36.6198
0.239543
0.41702
-0.159039
0.0893966
0.0625901
0.0564815
0.0512671
0.0445914
0.0364936
0.0271242
0.0162917
0.00537305
36.2512
36.252
36.2561
36.2651
36.2799
36.302
36.3328
36.3737
36.4293
36.4571
36.6961
36.4195
36.6244
0.235932
0.414071
-0.162216
0.086277
0.0598665
0.0541356
0.0492977
0.0429973
0.0352681
0.0262583
0.0157768
0.00520303
36.2508
36.2506
36.2539
36.2623
36.2767
36.2983
36.329
36.3701
36.4266
36.4597
36.69
36.4227
36.6288
0.233285
0.409195
-0.164864
0.08367
0.0577455
0.0523273
0.0477831
0.0417723
0.0343266
0.0255931
0.0153813
0.00507264
36.2514
36.25
36.2526
36.2606
36.2746
36.2959
36.3264
36.3678
36.4249
36.462
36.6849
36.4255
36.6327
0.231272
0.40922
-0.166311
0.08227
0.056368
0.0511014
0.0467539
0.0409399
0.033687
0.0251412
0.0151131
0.00498448
36.2559
36.2502
36.252
36.2597
36.2736
36.2948
36.3253
36.3668
36.4242
36.4641
36.6819
36.4257
36.6354
0.228403
0.405487
-0.16704
0.0810602
0.0555685
0.0504738
0.0462281
0.0405154
0.0333613
0.0249111
0.0149772
0.00494062
36.3488
36.3481
36.3588
36.3786
36.4064
36.4417
36.4838
36.5293
36.5889
36.4229
36.9552
36.4811
36.6885
0.335182
0.510847
-0.0645695
0.170679
0.136688
0.121465
0.106482
0.0898452
0.0717241
0.0523328
0.0314763
0.0104677
36.3431
36.3463
36.3577
36.3776
36.4053
36.4406
36.4827
36.5281
36.5876
36.424
36.9496
36.4791
36.6885
0.335191
0.512013
-0.0654636
0.170221
0.136099
0.120919
0.106022
0.0894703
0.0714345
0.0521276
0.0313534
0.0104262
36.3391
36.3437
36.3556
36.3754
36.4031
36.4383
36.4802
36.5254
36.5846
36.425
36.9451
36.4769
36.6879
0.33449
0.509514
-0.0672099
0.168707
0.134828
0.119829
0.105102
0.0887217
0.0708566
0.0517183
0.0311094
0.0103452
36.3349
36.3402
36.3524
36.3723
36.3998
36.4347
36.4763
36.5214
36.58
36.4256
36.9392
36.4741
36.6862
0.333292
0.508246
-0.069404
0.1667
0.132974
0.11821
0.103732
0.0876079
0.0699971
0.0511096
0.030747
0.0102252
36.3303
36.336
36.3484
36.3681
36.3954
36.4299
36.4712
36.5158
36.5737
36.426
36.9316
36.4704
36.6832
0.330614
0.505053
-0.0724027
0.163941
0.130516
0.116071
0.101929
0.0861419
0.0688663
0.0503088
0.0302704
0.0100678
36.3254
36.3312
36.3436
36.3631
36.39
36.4241
36.4648
36.5089
36.5659
36.4263
36.9221
36.4656
36.6788
0.326918
0.501297
-0.0760394
0.160525
0.127494
0.113446
0.0997136
0.0843414
0.0674778
0.0493257
0.0296856
0.00987459
36.32
36.3258
36.3381
36.3572
36.3836
36.4171
36.4571
36.5006
36.5566
36.4263
36.9103
36.4594
36.6727
0.322422
0.496767
-0.0802969
0.156487
0.123939
0.110362
0.0971123
0.0822282
0.0658488
0.0481726
0.0289997
0.00964813
36.3142
36.32
36.3319
36.3506
36.3764
36.4092
36.4483
36.491
36.5457
36.426
36.8958
36.4518
36.6651
0.3172
0.491545
-0.0851296
0.151882
0.119894
0.106856
0.0941576
0.079829
0.0639999
0.0468642
0.0282216
0.00939125
36.3081
36.3137
36.3253
36.3434
36.3685
36.4003
36.4385
36.4802
36.5335
36.4254