/*--------------------------------*- C++ -*----------------------------------*\
  =========                 |
  \\      /  F ield         | OpenFOAM: The Open Source CFD Toolbox
   \\    /   O peration     | Website:  https://openfoam.org
    \\  /    A nd           | Version:  11
     \\/     M anipulation  |
\*---------------------------------------------------------------------------*/
FoamFile
{
    format      ascii;
    class       volScalarField;
    location    "900";
    object      k;
}
// * * * * * * * * * * * * * * * * * * * * * * * * * * * * * * * * * * * * * //

dimensions      [0 2 -2 0 0 0 0];

internalField   nonuniform List<scalar> 
729
(
2.50735
6.94378
10.0914
11.719
12.4957
12.3225
11.6699
9.95711
5.66365
0.617857
2.06783
2.81817
3.9666
4.85037
5.38478
5.41597
5.02847
4.06881
0.0873502
0.115241
0.289684
0.604278
1.17987
1.91716
2.56095
2.95343
2.78159
0.0193081
0.0368938
0.0632229
0.125005
0.275915
0.726089
1.39128
1.96665
1.99953
0.0188736
0.0367715
0.066867
0.105235
0.180229
0.41171
0.890735
1.40975
1.47298
0.0197031
0.0427989
0.0752247
0.114334
0.176619
0.322947
0.668666
1.06669
1.11503
0.0203136
0.0443988
0.0800809
0.123387
0.180213
0.29078
0.545252
0.818286
0.840218
0.0202776
0.0464666
0.0810478
0.125041
0.180908
0.272662
0.482203
0.677328
0.676994
0.0203236
0.0464592
0.0816121
0.126135
0.180953
0.255993
0.392827
0.498961
0.477158
5.78076
23.5363
31.8884
37.0137
39.8166
40.1418
37.7921
32.335
14.7403
0.947109
5.05543
9.30615
13.0199
15.7098
17.1383
17.1167
15.9951
10.1338
0.0900669
0.426827
1.41544
3.1019
5.1077
6.91487
8.21659
8.77649
6.18099
0.0356673
0.082357
0.19175
0.556866
1.49472
2.93447
4.38048
5.33857
4.01094
0.0379426
0.0789991
0.151524
0.302197
0.687606
1.55003
2.65957
3.49458
2.73608
0.0418048
0.0948238
0.173849
0.292924
0.543109
1.06823
1.83626
2.42998
1.94899
0.0426117
0.0988439
0.185324
0.311174
0.509856
0.868578
1.39659
1.75642
1.40842
0.0436883
0.103172
0.19166
0.320348
0.499503
0.76717
1.13839
1.35219
1.09315
0.0436742
0.103665
0.193524
0.324195
0.497133
0.70676
0.918408
0.970539
0.750439
7.01519
27.5873
37.6908
44.4248
48.4019
49.3882
47.1716
41.2915
19.4375
1.3016
6.70964
12.686
17.5731
21.0323
22.8964
23.0067
21.6746
13.3389
0.118239
0.777563
2.63364
5.3046
7.98495
10.1779
11.6541
12.1045
8.06069
0.0531019
0.126178
0.408153
1.23714
2.82201
4.68009
6.38434
7.34571
5.20173
0.0579616
0.115899
0.23773
0.504474
1.22223
2.47201
3.86289
4.76336
3.51813
0.0608585
0.13456
0.236958
0.421035
0.816499
1.59708
2.59892
3.2603
2.47922
0.0617434
0.140078
0.250851
0.414801
0.699908
1.21643
1.91119
2.32287
1.77489
0.0624785
0.14519
0.258936
0.420741
0.657915
1.02513
1.50749
1.75709
1.36238
0.0625086
0.145948
0.260841
0.423861
0.643973
0.918484
1.19288
1.25192
0.927932
7.53782
29.096
40.0023
47.5375
52.1508
53.5123
51.2978
45.014
21.27
1.49017
7.4971
14.3099
19.8027
23.692
25.8151
25.9803
24.4037
14.6477
0.146699
1.01595
3.4018
6.58743
9.62021
12.0341
13.6002
13.8767
8.88233
0.0656362
0.169185
0.595878
1.77391
3.69146
5.78052
7.61148
8.47382
5.75466
0.0685647
0.141791
0.296086
0.679036
1.63349
3.10338
4.63875
5.49992
3.89606
0.0713001
0.159565
0.281517
0.510638
1.02487
1.97276
3.10532
3.74824
2.7421
0.0733662
0.166611
0.292496
0.484081
0.831682
1.45783
2.25281
2.65435
1.95929
0.0735638
0.171364
0.299296
0.48159
0.758402
1.19599
1.74709
1.99267
1.49862
0.0737079
0.172457
0.301489
0.483287
0.732375
1.05036
1.36122
1.40998
1.01757
7.68695
29.484
40.6405
48.4247
53.2377
54.7138
52.4949
46.069
21.765
1.55119
7.72734
14.7947
20.4771
24.5047
26.713
26.8905
25.2172
14.9978
0.157995
1.09621
3.6548
7.00439
10.1495
12.635
14.2256
14.4196
9.11361
0.0699027
0.184902
0.669013
1.96818
3.99233
6.15455
8.02168
8.83055
5.91234
0.072158
0.151241
0.318535
0.748555
1.78651
3.32784
4.90721
5.736
4.00547
0.0748956
0.168324
0.29783
0.544645
1.10422
2.10993
3.28334
3.90662
2.81913
0.0771812
0.175834
0.306636
0.508477
0.880676
1.54671
2.3732
2.76208
2.01372
0.0773142
0.180288
0.313041
0.503023
0.794428
1.25822
1.83119
2.0691
1.53884
0.0774619
0.181537
0.315311
0.503689
0.763163
1.09713
1.4189
1.46022
1.04396
7.53125
29.1128
40.0042
47.5437
52.1584
53.5197
51.3047
45.0207
21.2718
1.48422
7.46894
14.306
19.8075
23.6989
25.8218
25.9864
24.4092
14.6496
0.141579
0.976824
3.38827
6.58941
9.62503
12.0392
13.6049
13.8807
8.88403
0.0625062
0.138177
0.586295
1.77793
3.69425
5.78386
7.6148
8.47665
5.75601
0.0695648
0.142085
0.29475
0.680223
1.63482
3.1053
4.64097
5.5019
3.8971
0.0710405
0.159229
0.281187
0.510625
1.02534
1.97381
3.10679
3.74964
2.7429
0.0733195
0.166764
0.292603
0.484032
0.831857
1.45842
2.2538
2.65535
1.9599
0.0734676
0.171066
0.29897
0.481434
0.758437
1.19635
1.74778
1.99342
1.49912
0.0736125
0.172264
0.301275
0.483141
0.732382
1.0506
1.36168
1.41047
1.01791
7.06217
27.7191
37.7038
44.4403
48.417
49.4019
47.1841
41.3071
19.4383
1.32646
6.65724
12.6874
17.5858
21.0474
22.9098
23.0185
21.6854
13.3412
0.116718
0.770169
2.63342
5.31048
7.99487
10.1877
11.663
12.112
8.06293
0.0535667
0.127213
0.406026
1.24125
2.82593
4.68611
6.39026
7.35084
5.20379
0.0578509
0.115696
0.236683
0.506126
1.22332
2.47506
3.86659
4.76689
3.51983
0.0602122
0.134141
0.236852
0.420965
0.817004
1.59863
2.6013
3.26276
2.48058
0.0618981
0.140033
0.250697
0.414574
0.700037
1.21727
1.91276
2.32461
1.77595
0.0621712
0.14472
0.258384
0.420395
0.657891
1.02564
1.50859
1.7584
1.36327
0.0623233
0.145589
0.26042
0.423554
0.643933
0.918825
1.19363
1.2528
0.928552
6.00961
23.9805
31.9294
37.0368
39.8336
40.1557
37.8036
32.3695
14.7255
1.09989
4.91343
9.32471
13.0413
15.7331
17.1571
17.1338
16.0082
10.1288
0.0842276
0.435422
1.41377
3.11166
5.11975
6.92714
8.22792
8.78483
6.1804
0.0351525
0.0827556
0.18625
0.559828
1.49867
2.94062
4.38718
5.34418
4.01187
0.0379554
0.0776426
0.149735
0.301858
0.688082
1.55259
2.66334
3.49834
2.73742
0.04143
0.094283
0.173843
0.29256
0.543346
1.06938
1.83847
2.43258
1.9503
0.0423708
0.0982486
0.184156
0.31065
0.509763
0.869178
1.39799
1.75827
1.40954
0.043443
0.102873
0.191232
0.319902
0.499364
0.767521
1.13938
1.3536
1.09413
0.0434364
0.103298
0.192983
0.323783
0.497015
0.707009
0.919123
0.971519
0.751139
2.50958
7.15094
10.1032
11.729
12.5049
12.3386
11.6355
10.0488
5.62171
0.985191
1.47687
2.89616
3.9692
4.87195
5.39588
5.42934
5.02975
4.05535
0.0855139
0.170601
0.278555
0.611643
1.18485
1.92298
2.56702
2.95698
2.77856
0.0196024
0.035222
0.0618235
0.1241
0.277204
0.727918
1.39437
1.96913
1.99959
0.0186227
0.0367283
0.0644366
0.104713
0.180267
0.412045
0.89231
1.41146
1.47385
0.0194819
0.0426118
0.0771165
0.114782
0.176454
0.323161
0.669382
1.06794
1.11604
0.0200744
0.0442302
0.0781389
0.122981
0.180113
0.290757
0.545585
0.819217
0.841135
0.0200639
0.0461573
0.0815491
0.124847
0.180743
0.272602
0.482452
0.678091
0.67786
0.0201044
0.0461801
0.0813419
0.125917
0.180831
0.255958
0.393054
0.49955
0.477816
)
;

boundaryField
{
    inlet
    {
        type            fixedValue;
        value           uniform 0.375;
    }
    outlet
    {
        type            zeroGradient;
    }
    lowerWall
    {
        type            kqRWallFunction;
        value           nonuniform List<scalar> 
162
(
2.50735
5.78076
7.01519
7.53782
7.68695
7.53125
7.06217
6.00961
2.50958
0.617857
0.947109
1.3016
1.49017
1.55119
1.48422
1.32646
1.09989
0.985191
0.0873502
0.0900669
0.118239
0.146699
0.157995
0.141579
0.116718
0.0842276
0.0855139
0.0193081
0.0356673
0.0531019
0.0656362
0.0699027
0.0625062
0.0535667
0.0351525
0.0196024
0.0188736
0.0379426
0.0579616
0.0685647
0.072158
0.0695648
0.0578509
0.0379554
0.0186227
0.0197031
0.0418048
0.0608585
0.0713001
0.0748956
0.0710405
0.0602122
0.04143
0.0194819
0.0203136
0.0426117
0.0617434
0.0733662
0.0771812
0.0733195
0.0618981
0.0423708
0.0200744
0.0202776
0.0436883
0.0624785
0.0735638
0.0773142
0.0734676
0.0621712
0.043443
0.0200639
0.0203236
0.0436742
0.0625086
0.0737079
0.0774619
0.0736125
0.0623233
0.0434364
0.0201044
5.66365
14.7403
19.4375
21.27
21.765
21.2718
19.4383
14.7255
5.62171
4.06881
10.1338
13.3389
14.6477
14.9978
14.6496
13.3412
10.1288
4.05535
2.78159
6.18099
8.06069
8.88233
9.11361
8.88403
8.06293
6.1804
2.77856
1.99953
4.01094
5.20173
5.75466
5.91234
5.75601
5.20379
4.01187
1.99959
1.47298
2.73608
3.51813
3.89606
4.00547
3.8971
3.51983
2.73742
1.47385
1.11503
1.94899
2.47922
2.7421
2.81913
2.7429
2.48058
1.9503
1.11604
0.840218
1.40842
1.77489
1.95929
2.01372
1.9599
1.77595
1.40954
0.841135
0.676994
1.09315
1.36238
1.49862
1.53884
1.49912
1.36327
1.09413
0.67786
0.477158
0.750439
0.927932
1.01757
1.04396
1.01791
0.928552
0.751139
0.477816
)
;
    }
    upperWall
    {
        type            kqRWallFunction;
        value           nonuniform List<scalar> 
162
(
2.50735
2.50958
0.617857
0.985191
0.0873502
0.0855139
0.0193081
0.0196024
0.0188736
0.0186227
0.0197031
0.0194819
0.0203136
0.0200744
0.0202776
0.0200639
0.0203236
0.0201044
6.94378
7.15094
2.06783
1.47687
0.115241
0.170601
0.0368938
0.035222
0.0367715
0.0367283
0.0427989
0.0426118
0.0443988
0.0442302
0.0464666
0.0461573
0.0464592
0.0461801
10.0914
10.1032
2.81817
2.89616
0.289684
0.278555
0.0632229
0.0618235
0.066867
0.0644366
0.0752247
0.0771165
0.0800809
0.0781389
0.0810478
0.0815491
0.0816121
0.0813419
11.719
11.729
3.9666
3.9692
0.604278
0.611643
0.125005
0.1241
0.105235
0.104713
0.114334
0.114782
0.123387
0.122981
0.125041
0.124847
0.126135
0.125917
12.4957
12.5049
4.85037
4.87195
1.17987
1.18485
0.275915
0.277204
0.180229
0.180267
0.176619
0.176454
0.180213
0.180113
0.180908
0.180743
0.180953
0.180831
12.3225
12.3386
5.38478
5.39588
1.91716
1.92298
0.726089
0.727918
0.41171
0.412045
0.322947
0.323161
0.29078
0.290757
0.272662
0.272602
0.255993
0.255958
11.6699
11.6355
5.41597
5.42934
2.56095
2.56702
1.39128
1.39437
0.890735
0.89231
0.668666
0.669382
0.545252
0.545585
0.482203
0.482452
0.392827
0.393054
9.95711
10.0488
5.02847
5.02975
2.95343
2.95698
1.96665
1.96913
1.40975
1.41146
1.06669
1.06794
0.818286
0.819217
0.677328
0.678091
0.498961
0.49955
5.66365
5.62171
4.06881
4.05535
2.78159
2.77856
1.99953
1.99959
1.47298
1.47385
1.11503
1.11604
0.840218
0.841135
0.676994
0.67786
0.477158
0.477816
)
;
    }
}


// ************************************************************************* //
