/*--------------------------------*- C++ -*----------------------------------*\
  =========                 |
  \\      /  F ield         | OpenFOAM: The Open Source CFD Toolbox
   \\    /   O peration     | Website:  https://openfoam.org
    \\  /    A nd           | Version:  11
     \\/     M anipulation  |
\*---------------------------------------------------------------------------*/
FoamFile
{
    format      ascii;
    class       volScalarField;
    location    "900";
    object      nut;
}
// * * * * * * * * * * * * * * * * * * * * * * * * * * * * * * * * * * * * * //

dimensions      [0 2 -1 0 0 0 0];

internalField   nonuniform List<scalar> 
729
(
0.0177599
0.0286535
0.0358629
0.0385135
0.0397153
0.0393795
0.0387548
0.0346011
0.0274135
0.00488956
0.0274101
0.0183053
0.0224823
0.0246601
0.0260561
0.0260656
0.0252574
0.0229401
0.00421625
0.00212349
0.00656886
0.00866844
0.0121654
0.015547
0.0179511
0.0193059
0.0188378
0.0015468
0.0024829
0.00250222
0.00480521
0.00555362
0.00963297
0.0132412
0.0157458
0.0159201
0.00156133
0.00205148
0.0029417
0.0039103
0.00458407
0.00728194
0.0105867
0.0133274
0.0136443
0.00153429
0.00242297
0.00295929
0.00365075
0.00470886
0.00635337
0.00917742
0.0115927
0.0118639
0.00161896
0.00229173
0.00325775
0.00405961
0.00478921
0.00605963
0.0082913
0.0101544
0.0102958
0.00159822
0.00245639
0.00315878
0.00392607
0.00477664
0.0058646
0.00779671
0.00923955
0.00924034
0.00160071
0.00242037
0.0032075
0.00398753
0.00477669
0.00568173
0.00703645
0.00792978
0.00775792
0.0254387
0.116991
0.160297
0.185732
0.20001
0.203756
0.194715
0.167776
0.043279
0.00888787
0.0418629
0.0730938
0.100094
0.119333
0.130331
0.130776
0.115661
0.0358497
0.00377648
0.0077522
0.0176197
0.0383195
0.0612336
0.080476
0.0916338
0.0830165
0.0279762
0.0022666
0.00445484
0.0124694
0.0119985
0.0317304
0.0527789
0.0661641
0.061565
0.0225209
0.00204702
0.00849802
0.0134693
0.0161438
0.0259437
0.0403404
0.05022
0.0470044
0.0185906
0.00236754
0.00946762
0.0160723
0.0194022
0.0255741
0.0342976
0.0405821
0.0370973
0.0156848
0.00227559
0.0102164
0.0161563
0.0211364
0.0257013
0.0309248
0.0347123
0.0301168
0.0133305
0.00236542
0.0109312
0.0166796
0.021271
0.025557
0.0289494
0.0307603
0.025453
0.0117422
0.00234661
0.0109514
0.0167014
0.0214828
0.0256245
0.0283665
0.0275977
0.0211682
0.00972964
0.0294377
0.140108
0.19573
0.230601
0.251557
0.259665
0.25213
0.221614
0.0495324
0.0124853
0.0543399
0.100325
0.135928
0.160638
0.174915
0.175726
0.15255
0.0410295
0.00390866
0.0112047
0.0328493
0.0631832
0.0919389
0.114074
0.124687
0.107848
0.031893
0.00254039
0.00796869
0.0109871
0.0262121
0.0519962
0.0767459
0.0900135
0.0785103
0.0256178
0.00268974
0.0104692
0.0180228
0.0231392
0.0374199
0.0567431
0.067521
0.0593281
0.0210661
0.0027997
0.013799
0.0212123
0.0267179
0.0344494
0.0462847
0.0534737
0.0462571
0.017683
0.00277229
0.014171
0.0223153
0.0277595
0.0335472
0.0403547
0.0447136
0.037199
0.014961
0.00281464
0.015096
0.0228977
0.0283939
0.0331633
0.0370906
0.0388917
0.0311061
0.013107
0.00280729
0.0151433
0.0228699
0.0285387
0.0332158
0.0361329
0.0346284
0.0258183
0.0108176
0.0308913
0.149332
0.210426
0.249751
0.274141
0.284539
0.27721
0.242161
0.0517889
0.0137698
0.0611285
0.113676
0.153361
0.180805
0.19673
0.197348
0.169128
0.0429761
0.00430174
0.0139174
0.0423848
0.0774186
0.108747
0.132005
0.14163
0.119479
0.0334657
0.00286185
0.00802663
0.0147368
0.0353917
0.0644738
0.0903978
0.10259
0.0863746
0.0269366
0.00296345
0.0119327
0.0196369
0.0270157
0.0453253
0.0662944
0.0766796
0.064995
0.0221638
0.00294568
0.0154913
0.0235764
0.0298764
0.0394158
0.0528698
0.0602516
0.0503885
0.018594
0.00308059
0.0162677
0.025424
0.0310788
0.0373554
0.045171
0.0497653
0.0403257
0.0157173
0.00302968
0.017038
0.0256652
0.0314644
0.0365678
0.0409811
0.0427245
0.0335656
0.0137459
0.00304831
0.0171507
0.0257027
0.031692
0.0365686
0.0396432
0.0376781
0.0277511
0.011327
0.0311293
0.151898
0.214642
0.255309
0.28075
0.29182
0.28447
0.247784
0.0523842
0.0140268
0.063238
0.117749
0.158668
0.186961
0.203408
0.203879
0.173962
0.0434838
0.00450708
0.0148401
0.0455045
0.0820279
0.114131
0.137703
0.146903
0.122796
0.0338965
0.00293814
0.0088293
0.0162929
0.0386024
0.0686986
0.0948812
0.106595
0.0886865
0.0273017
0.00305721
0.0121334
0.0202467
0.0284833
0.0481466
0.069526
0.0796789
0.0666541
0.0224718
0.00300231
0.0162919
0.0244925
0.0308769
0.0411338
0.0550933
0.0624636
0.0516115
0.0188527
0.00316235
0.0169072
0.026245
0.0320296
0.0385836
0.0467826
0.0513819
0.0412443
0.0159337
0.00310672
0.0176343
0.0264881
0.0324262
0.0376075
0.04224
0.0439172
0.0342805
0.0139288
0.00312498
0.0177749
0.0265521
0.0326352
0.0375732
0.0407306
0.0385762
0.028288
0.0114726
0.030749
0.149413
0.210485
0.249802
0.274186
0.284579
0.277244
0.242199
0.0517865
0.0136667
0.0609033
0.113688
0.153411
0.180859
0.196776
0.197384
0.169161
0.0429763
0.00423729
0.0128942
0.0420714
0.077459
0.108806
0.13205
0.141662
0.119501
0.0334671
0.00276469
0.00213461
0.0145101
0.0354635
0.0645449
0.0904367
0.102616
0.0863899
0.0269384
0.00305476
0.0127303
0.0197718
0.0269984
0.04537
0.066314
0.0766993
0.0650061
0.0221658
0.00293256
0.0152731
0.0235501
0.0298696
0.0394203
0.052882
0.0602661
0.0503972
0.018596
0.00308204
0.0163462
0.0254767
0.0310797
0.037355
0.0451778
0.0497758
0.0403326
0.0157192
0.00302843
0.0169898
0.0256224
0.0314542
0.036564
0.0409843
0.0427319
0.0335714
0.0137478
0.00304634
0.0171376
0.0256893
0.0316823
0.0365641
0.0396442
0.0376827
0.0277551
0.0113285
0.0300559
0.140483
0.195871
0.230698
0.25164
0.259737
0.252186
0.221742
0.049502
0.0132587
0.0536817
0.100433
0.136039
0.160755
0.175008
0.17579
0.152628
0.0410125
0.00374247
0.0104397
0.0329803
0.063294
0.0920722
0.114165
0.124747
0.107897
0.0318839
0.00265344
0.00583985
0.0121716
0.0256458
0.0522215
0.0768325
0.0900629
0.0785416
0.0256145
0.00269828
0.0102496
0.0183284
0.0228951
0.0375195
0.0567723
0.0675542
0.0593501
0.021066
0.0027306
0.0136871
0.0212608
0.0267151
0.0344602
0.0463035
0.0534975
0.0462738
0.0176847
0.00282614
0.0142191
0.0223682
0.0277492
0.0335404
0.0403634
0.0447303
0.0372124
0.0149635
0.00278292
0.0150358
0.0228177
0.0283737
0.0331555
0.0370939
0.0389039
0.0311177
0.0131102
0.002803
0.0151185
0.0228457
0.0285209
0.0332069
0.0361332
0.0346364
0.0258264
0.01082
0.0290141
0.118133
0.160569
0.185848
0.200093
0.203818
0.194705
0.168233
0.0430682
0.0144746
0.037921
0.0731841
0.100196
0.119505
0.130459
0.130856
0.115806
0.0357273
0.00279558
0.00522065
0.0179174
0.0384294
0.0613649
0.0805979
0.0917125
0.0830815
0.0279101
0.00227072
0.00337838
0.0123813
0.0121467
0.0318215
0.0528682
0.0662211
0.0616033
0.0224878
0.0021116
0.00871888
0.0133454
0.0160682
0.0259478
0.0403751
0.0502547
0.047031
0.0185763
0.00234413
0.00927302
0.0161065
0.0193752
0.0255921
0.0343127
0.0406048
0.0371181
0.0156802
0.00227016
0.0101918
0.016378
0.0211111
0.0256911
0.0309312
0.0347279
0.0301339
0.0133305
0.00235767
0.0109085
0.0165175
0.021248
0.025547
0.028951
0.0307725
0.025468
0.0117448
0.00234018
0.0109279
0.016672
0.021463
0.0256146
0.0283656
0.0276072
0.0211793
0.00973144
0.0179073
0.0316925
0.0358438
0.0384632
0.0396775
0.0394334
0.0382748
0.0356426
0.0265895
0.0219436
0.00817737
0.0195461
0.0221866
0.0247989
0.0260792
0.0261672
0.0251793
0.0225952
0.00283446
0.00793874
0.00553727
0.00884213
0.0121662
0.0155664
0.0179884
0.0193076
0.0187081
0.0016157
0.00218164
0.00240231
0.00468253
0.00558818
0.00962783
0.0132618
0.0157563
0.015873
0.00155321
0.00211005
0.00275023
0.00386318
0.00458372
0.00726868
0.0105997
0.0133395
0.0136288
0.00152637
0.0023882
0.00331708
0.0036851
0.00469867
0.0063584
0.00918319
0.0116035
0.0118605
0.00160755
0.00230472
0.00303095
0.00402075
0.00478909
0.00605773
0.0082933
0.0101631
0.0102971
0.00159007
0.00244509
0.00325366
0.00393046
0.00476999
0.00586172
0.00779903
0.00924632
0.00924412
0.00159205
0.00241304
0.00320264
0.00398408
0.00477466
0.00568047
0.00703972
0.0079364
0.00776115
)
;

boundaryField
{
    inlet
    {
        type            calculated;
        value           uniform 0.000851986;
    }
    outlet
    {
        type            calculated;
        value           nonuniform List<scalar> 
81
(
0.00160071
0.00234661
0.00280729
0.00304831
0.00312498
0.00304634
0.002803
0.00234018
0.00159205
0.00242037
0.0109514
0.0151433
0.0171507
0.0177749
0.0171376
0.0151185
0.0109279
0.00241304
0.0032075
0.0167014
0.0228699
0.0257027
0.0265521
0.0256893
0.0228457
0.016672
0.00320264
0.00398753
0.0214828
0.0285387
0.031692
0.0326352
0.0316823
0.0285209
0.021463
0.00398408
0.00477669
0.0256245
0.0332158
0.0365686
0.0375732
0.0365641
0.0332069
0.0256146
0.00477466
0.00568173
0.0283665
0.0361329
0.0396432
0.0407306
0.0396442
0.0361332
0.0283656
0.00568047
0.00703645
0.0275977
0.0346284
0.0376781
0.0385762
0.0376827
0.0346364
0.0276072
0.00703972
0.00792978
0.0211682
0.0258183
0.0277511
0.028288
0.0277551
0.0258264
0.0211793
0.0079364
0.00775792
0.00972964
0.0108176
0.011327
0.0114726
0.0113285
0.01082
0.00973144
0.00776115
)
;
    }
    lowerWall
    {
        type            nutkWallFunction;
        Cmu             0.09;
        kappa           0.41;
        E               9.8;
        value           nonuniform List<scalar> 
162
(
0.00165832
0.00242764
0.00265206
0.00274059
0.00276524
0.0027395
0.00266016
0.00247107
0.00165899
0.000876415
0.00106442
0.00123016
0.00130833
0.00133245
0.00130595
0.00124081
0.0011394
0.00108369
0.000359602
0.000364666
0.000412883
0.000455537
0.000471197
0.000448222
0.000410452
0.000353673
0.00035613
0.000179715
0.000238576
0.000286391
0.000315568
0.00032479
0.000308591
0.000287536
0.000236985
0.00018098
0.000177829
0.000245456
0.000298111
0.000321932
0.000329539
0.000324071
0.00029785
0.000245494
0.000176728
0.00018141
0.000256633
0.000304841
0.000327742
0.000335197
0.000327196
0.000303355
0.000255574
0.000180464
0.000183994
0.000258895
0.000306862
0.00033205
0.000339834
0.000331954
0.000307214
0.000258222
0.000182987
0.000183843
0.000261877
0.000308529
0.000332459
0.000340101
0.00033226
0.000307833
0.000261202
0.000182942
0.000184036
0.000261838
0.000308597
0.000332757
0.000340398
0.00033256
0.000308178
0.000261183
0.000183114
0.00240505
0.00372468
0.00422787
0.0044061
0.00445282
0.00440628
0.00422795
0.00372297
0.0023969
0.00206803
0.00313769
0.00355815
0.00371394
0.00375433
0.00371417
0.00355843
0.00313699
0.0020649
0.00173867
0.00250301
0.00282591
0.00295414
0.00298907
0.0029544
0.00282627
0.0025029
0.00173781
0.00149581
0.00205455
0.0023134
0.00242262
0.00245272
0.00242288
0.00231382
0.00205477
0.00149584
0.00130143
0.00172564
0.00193527
0.00202749
0.00205327
0.00202774
0.0019357
0.00172603
0.00130178
0.00114651
0.00147847
0.00164981
0.00172737
0.00174933
0.0017276
0.00165022
0.00147892
0.00114698
0.00100797
0.00127514
0.00141677
0.00148202
0.00150064
0.00148223
0.00141716
0.0012756
0.00100847
0.000913627
0.00113621
0.00125599
0.0013117
0.00132762
0.0013119
0.00125636
0.00113668
0.000914158
0.000779217
0.000957457
0.00105456
0.00109976
0.00111265
0.00109993
0.00105488
0.000957863
0.000779706
)
;
    }
    upperWall
    {
        type            nutkWallFunction;
        Cmu             0.09;
        kappa           0.41;
        E               9.8;
        value           nonuniform List<scalar> 
162
(
0.00165832
0.00165899
0.000876415
0.00108369
0.000359602
0.00035613
0.000179715
0.00018098
0.000177829
0.000176728
0.00018141
0.000180464
0.000183994
0.000182987
0.000183843
0.000182942
0.000184036
0.000183114
0.00263969
0.00267539
0.00151888
0.001303
0.000408076
0.000487965
0.000242313
0.000237201
0.000241944
0.000241813
0.000259417
0.000258895
0.000263823
0.000263363
0.000269391
0.000268567
0.000269372
0.000268628
0.00313169
0.00313336
0.00174906
0.00177096
0.000620953
0.000609982
0.000310205
0.000307044
0.000318261
0.000312916
0.000335869
0.000339704
0.000345609
0.000341754
0.00034751
0.00034849
0.000348613
0.000348085
0.00335343
0.00335473
0.00204416
0.00204477
0.0008676
0.000872394
0.000423493
0.000422093
0.000391515
0.000390627
0.000406608
0.000407335
0.000420986
0.000420354
0.000423549
0.00042325
0.000425235
0.0004249
0.00345337
0.00345454
0.0022407
0.00224525
0.00117639
0.00117864
0.000607345
0.000608634
0.000500318
0.000500367
0.00049573
0.000495518
0.000500298
0.000500172
0.000501177
0.000500968
0.000501232
0.000501079
0.00343139
0.00343344
0.00235023
0.00235244
0.00146742
0.00146945
0.000943195
0.000944275
0.000728641
0.00072891
0.000652434
0.000652631
0.000622021
0.000621998
0.000604076
0.000604015
0.000586982
0.000586946
0.00334699
0.00334248
0.00235644
0.00235909
0.00167438
0.00167619
0.00126805
0.00126934
0.00103511
0.00103594
0.000908497
0.000908939
0.000827966
0.000828196
0.000782954
0.000783138
0.000713244
0.000713431
0.00311256
0.00312564
0.0022779
0.00227816
0.00178685
0.00178783
0.00148456
0.00148541
0.00127569
0.00127639
0.00112361
0.00112421
0.000995914
0.00099643
0.000913832
0.0009143
0.000795216
0.000795643
0.00240505
0.0023969
0.00206803
0.0020649
0.00173867
0.00173781
0.00149581
0.00149584
0.00130143
0.00130178
0.00114651
0.00114698
0.00100797
0.00100847
0.000913627
0.000914158
0.000779217
0.000779706
)
;
    }
}


// ************************************************************************* //
