/*--------------------------------*- C++ -*----------------------------------*\
  =========                 |
  \\      /  F ield         | OpenFOAM: The Open Source CFD Toolbox
   \\    /   O peration     | Website:  https://openfoam.org
    \\  /    A nd           | Version:  11
     \\/     M anipulation  |
\*---------------------------------------------------------------------------*/
FoamFile
{
    format      ascii;
    class       surfaceScalarField;
    location    "900";
    object      phi;
}
// * * * * * * * * * * * * * * * * * * * * * * * * * * * * * * * * * * * * * //

dimensions      [0 3 -1 0 0 0 0];

internalField   nonuniform List<scalar> 
1944
(
0.008248
-0.00197662
-0.00636682
0.0119589
0.0025522
-0.0062916
0.0170231
0.00055519
-0.00564871
0.0204381
0.000790206
-0.00421527
0.0227722
0.000345703
-0.00268384
0.02401
-0.000479228
-0.000759207
0.0232323
-0.00181632
0.00259597
0.0196587
-0.00307288
0.00664757
0.0157281
0.00393311
-0.0025468
-0.00361623
0.00413998
0.000799968
-0.004309
0.00347191
0.00447584
-0.00516832
0.00202852
0.00799402
-0.00405727
0.00132027
0.0106171
-0.0031025
0.000821314
0.0115991
-0.0020789
0.000617147
0.00986479
-0.000825135
0.000743743
0.00339323
0.00270794
0.000692941
0.0195083
-0.000385317
-0.000642042
-0.00315812
0.000147906
0.00149556
-0.00766099
0.0011993
0.00322415
-0.00853739
0.00163177
0.00501656
-0.0075957
0.00174049
0.00616883
-0.00569355
0.00143631
0.00610228
-0.0029488
0.000935483
0.00400744
0.00100764
0.000262278
-0.00056664
0.0080593
-0.000776132
0.0210815
-0.00213898
0.000922214
-0.00507064
0.000983823
0.00170625
-0.00956722
0.00111882
0.00261636
-0.0104307
0.000981264
0.00350342
-0.00945684
0.000972297
0.0038711
-0.00696595
0.000903252
0.00330238
-0.00311025
0.00072931
0.0014767
0.00250448
0.000328686
-0.00180062
0.0118483
-0.000511187
0.0212427
-0.00196151
0.000952913
-0.0066411
0.000616668
0.00148892
-0.0108154
0.000712261
0.00198903
-0.0115567
0.000626074
0.00243638
-0.0103751
0.000470869
0.00248553
-0.00736171
0.000346058
0.00179258
-0.00276737
0.000349582
4.06483e-05
0.00397787
0.000278366
-0.00223047
0.0143855
-0.000265946
0.0205564
-0.00154411
0.000731512
-0.00784834
0.000474681
0.00101237
-0.0115973
0.000500695
0.00125633
-0.0121949
0.000394558
0.00143251
-0.0107682
0.000217251
0.00130299
-0.00724915
1.69438e-05
0.00059467
-0.00207671
1.74026e-05
-0.00104162
0.00551159
0.000102523
-0.00237901
0.0159147
-0.000191659
0.0194331
-0.00125569
0.000431188
-0.00856816
0.000286866
0.000534618
-0.0119913
0.000290145
0.000626843
-0.0124901
0.000203154
0.00064611
-0.0108449
5.75714e-05
0.00041079
-0.00687847
-0.000135331
-0.000335169
-0.00115875
-0.00017205
-0.00174164
0.00696114
-4.30192e-05
-0.00237303
0.0167261
-0.000179992
0.018083
-0.00102304
0.00018357
-0.00891147
0.000158363
0.000180576
-0.012138
0.000149166
0.000170405
-0.0125618
8.1781e-05
9.29946e-05
-0.0107455
-2.19194e-05
-0.000180744
-0.00644073
-0.000163957
-0.00100761
-5.5857e-05
-0.000276006
-0.00217959
0.00831391
-0.000180747
-0.00229705
0.0170728
-0.000229189
0.0166579
-0.00087192
5.39932e-05
8.84208e-05
1.87265e-05
7.06732e-05
-4.82388e-05
2.08609e-05
-0.000188409
-5.04448e-05
-0.000539747
-0.000146282
-0.00147491
-0.000292798
-0.00219532
-0.000271951
-0.00192048
-0.000321432
-0.000688502
0.00492038
-0.00657886
-0.00472952
0.0112513
-0.00806962
-0.00456882
0.0155143
-0.00566287
-0.00425673
0.018505
-0.00385885
-0.00335242
0.0208837
-0.00289836
-0.00216658
0.0231189
-0.00239466
-0.000600028
0.0255626
-0.00188002
0.0020329
0.0253381
0.00215045
0.00472384
0.0244647
0.00480866
0.000972232
-0.0059983
0.00259331
0.00350705
-0.00873268
0.00159658
0.00711452
-0.00797491
0.000728256
0.0103206
-0.0061062
0.0003579
0.0124057
-0.00438961
0.000225836
0.0129636
-0.00267834
0.000342464
0.0111945
-0.000154612
0.000788066
0.00663177
0.00626876
0.00113893
0.0287187
0.00199365
0.000867148
-0.00785826
0.00115842
0.0029282
-0.0113426
0.00175016
0.00478262
-0.0101786
0.00197917
0.0066022
-0.00793484
0.00174757
0.00764788
-0.00530783
0.00130762
0.00732013
-0.002223
0.000807475
0.00505823
0.00211533
0.000254499
0.00114831
0.00986035
-0.000456993
0.0282809
-0.000552345
0.00117095
-0.00919488
0.00115762
0.00189741
-0.0120531
0.00110625
0.00285775
-0.0112068
0.00104994
0.00383832
-0.00898638
0.0010429
0.00430382
-0.00577266
0.000902039
0.00386225
-0.00166752
0.000615063
0.00229991
0.00385145
0.000154861
-0.00024698
0.0124077
-0.000511518
0.0271967
-0.00112425
0.00111018
-0.0103672
0.000682758
0.00165831
-0.0125676
0.000680757
0.00211415
-0.0115759
0.000540741
0.00248443
-0.00930916
0.000423909
0.00248285
-0.00576615
0.000341133
0.00194483
-0.00106391
0.000283773
0.000832271
0.00515369
8.85056e-05
-0.000803076
0.0141377
-0.000360735
0.0258323
-0.000982854
0.000799746
-0.0111371
0.000446095
0.00106138
-0.0127308
0.000403468
0.00128803
-0.0116874
0.000280409
0.00141416
-0.00934278
0.000125325
0.00125341
-0.00557002
-1.82535e-05
0.000712141
-0.000471316
-3.40087e-05
-0.000172256
0.00618989
-4.94604e-05
-0.00120178
0.0152781
-0.00030268
0.0242062
-0.000831586
0.00047278
-0.0115708
0.000247514
0.000561157
-0.0127383
0.000209509
0.000643074
-0.0116834
0.000117629
0.000624508
-0.0092512
-1.50502e-05
0.000388856
-0.00529419
-0.000175316
-0.000124648
0.000100018
-0.000229899
-0.000849077
0.00704768
-0.000176506
-0.0014124
0.015951
-0.00028979
0.022483
-0.000712355
0.000214125
-0.0117583
0.000131494
0.000214372
-0.012691
0.00010164
0.000196527
-0.0116173
3.37807e-05
9.17747e-05
-0.00910296
-6.51696e-05
-0.000181591
-0.00497802
-0.000206636
-0.000696069
0.000662871
-0.000324402
-0.0013119
0.00776419
-0.000281515
-0.0015058
0.0162231
-0.00030745
0.0207226
-0.000617489
7.73677e-05
8.17291e-05
5.60942e-05
5.73596e-05
-1.67027e-05
3.20482e-06
-0.000176586
-7.2692e-05
-0.000486707
-0.000175527
-0.00100527
-0.000298055
-0.00144209
-0.000308731
-0.00131787
-0.000311813
-0.000481218
0.00448725
-0.00653024
-0.00264976
0.0116916
-0.00918449
-0.00258547
0.0158666
-0.0060027
-0.00243126
0.0185813
-0.00410717
-0.00196218
0.0208302
-0.00314115
-0.00127568
0.0232209
-0.00266405
-0.000327203
0.0261701
-0.00207419
0.00115847
0.0250367
0.00324599
0.00261278
0.0266613
0.00318515
0.00323253
-0.00847153
0.00132519
0.00495478
-0.0100743
0.000768185
0.00811209
-0.00866805
0.000235998
0.0109097
-0.00657335
2.53833e-05
0.0126535
-0.00466975
9.85801e-06
0.0128832
-0.00271499
0.000163379
0.0107499
0.000326114
0.00052144
0.00607982
0.00811864
0.00093736
0.0326111
0.00212434
0.0014148
-0.00980133
0.00108592
0.00356829
-0.0117954
0.00132257
0.00545462
-0.00982562
0.00125164
0.0070727
-0.00745236
0.0010083
0.00784715
-0.00485588
0.000718868
0.00718422
-0.0016809
0.000436154
0.00453358
0.00307249
0.000158943
0.000373937
0.0119134
-9.16755e-05
0.0320313
0.000401683
0.00108662
-0.0104577
0.000736336
0.00182931
-0.0121506
0.00072304
0.00289436
-0.0105777
0.000739035
0.00391232
-0.00814719
0.00072027
0.0043066
-0.00492992
0.000581733
0.00369077
-0.000805291
0.000355164
0.00189625
0.00496932
5.25198e-05
-0.000763685
0.0143301
-0.000268236
0.0303674
-0.000224096
0.0010571
-0.0112916
0.000464477
0.00158706
-0.012438
0.000441086
0.00205586
-0.0108688
0.00036475
0.00240414
-0.00837535
0.00030454
0.00235004
-0.00478148
0.000246966
0.00172399
-5.89481e-05
0.00016342
0.000500492
0.00628643
-5.21015e-06
-0.00108923
0.0157994
-0.000240482
0.0285683
-0.000273061
0.000762157
-0.011894
0.000288326
0.00100713
-0.0125317
0.000253587
0.00123638
-0.0109923
0.000175598
0.00132935
-0.00841838
7.59835e-05
0.00110748
-0.00456789
-9.73122e-06
0.0004936
0.0005615
-4.05794e-05
-0.000442327
0.00726388
-9.11172e-05
-0.00140456
0.016695
-0.000236212
0.0265942
-0.000262181
0.000452742
-0.0122582
0.000159568
0.000535825
-0.012535
0.000130227
0.000606324
-0.0110112
6.65638e-05
0.000548593
-0.00834855
-2.67583e-05
0.000256436
-0.0043176
-0.000133262
-0.000309794
0.00107723
-0.000179399
-0.00105259
0.00800548
-0.000175425
-0.00156254
0.017162
-0.000247062
0.0245786
-0.000259488
0.00020588
-0.0124156
8.28204e-05
0.000202618
-0.012491
6.08806e-05
0.000174234
-0.010961
1.20915e-05
3.21141e-05
-0.00820996
-6.14824e-05
-0.000291427
-0.00403806
-0.000162571
-0.00083128
0.00153521
-0.000242547
-0.00144362
0.00857739
-0.000241162
-0.00159456
0.0172696
-0.000264207
0.0226175
-0.000250959
7.48044e-05
5.34136e-05
5.24595e-05
3.38636e-05
-3.13232e-05
-6.44782e-06
-0.00021906
-6.45986e-05
-0.000557256
-0.000142856
-0.00105618
-0.000223947
-0.00149271
-0.000247171
-0.00135077
-0.000251509
-0.000215419
0.00445901
-0.00630771
-0.000800778
0.0120066
-0.00931503
-0.000816958
0.0161917
-0.005843
-0.00077332
0.0188185
-0.00395987
-0.000629913
0.0210251
-0.00307486
-0.000408196
0.0234824
-0.00268914
-9.5693e-05
0.0263912
-0.00212905
0.00037883
0.0246229
0.00354556
0.000835973
0.0267326
0.00107609
0.00408622
-0.00946147
0.000403291
0.00558914
-0.0102914
0.000243715
0.00858597
-0.00866862
6.51337e-05
0.0111969
-0.00653804
-7.70598e-06
0.0127529
-0.00461392
-7.53503e-06
0.0127698
-0.00259606
5.31341e-05
0.0103375
0.000641775
0.000182963
0.00547059
0.00899672
0.000353504
0.033485
0.000842762
0.00163853
-0.0104143
0.000412951
0.00397831
-0.0117865
0.000481582
0.0058396
-0.00969844
0.000421291
0.00728941
-0.00730304
0.000323665
0.00783903
-0.00467063
0.000225805
0.00690343
-0.00136146
0.000137004
0.00393333
0.00371396
5.69065e-05
-0.000446942
0.0132753
1.02719e-05
0.0331729
0.000267003
0.00104878
-0.0109432
0.000223176
0.0018733
-0.0121375
0.000252834
0.00298409
-0.0103335
0.000264836
0.00395275
-0.00780095
0.000249957
0.00420629
-0.00453775
0.000195365
0.00337882
-0.000292332
0.000113438
0.00132633
0.00580624
1.27323e-05
-0.00148096
0.0158877
-7.3345e-05
0.0314439
2.39442e-05
0.00102607
-0.0116541
0.000152254
0.00154339
-0.0123593
0.000147313
0.00199779
-0.0105495
0.000127329
0.00230131
-0.00790839
0.00010895
0.00216397
-0.00424016
8.68641e-05
0.00139801
0.000586354
5.0674e-05
-6.60929e-06
0.00721636
-1.07416e-05
-0.00162893
0.0173462
-7.6678e-05
0.0295602
-1.83233e-05
0.000734663
-0.0121928
9.36589e-05
0.000962785
-0.012417
8.39044e-05
0.00116968
-0.0106386
5.83538e-05
0.00121237
-0.00789894
2.42102e-05
0.000910122
-0.00394275
-4.74354e-06
0.000186091
0.00128905
-1.92302e-05
-0.00087892
0.00823162
-4.14051e-05
-0.00183015
0.0181439
-8.27303e-05
0.0274991
-3.1319e-05
0.000433354
-0.0125186
5.18675e-05
0.000501952
-0.0123975
4.22329e-05
0.000548844
-0.0106387
1.99693e-05
0.000445485
-0.00780837
-1.37663e-05
8.41108e-05
-0.0036633
-5.1232e-05
-0.000571213
0.00183394
-6.89355e-05
-0.00140874
0.00896538
-7.16953e-05
-0.00190394
0.018483
-9.10182e-05
0.0253797
-4.41028e-05
0.000193617
-0.0126551
2.54508e-05
0.000180057
-0.0123414
1.83054e-05
0.00013186
-0.0105792
7.82365e-07
-4.94102e-05
-0.00766196
-2.65293e-05
-0.000433043
-0.0033791
-6.30719e-05
-0.00103828
0.0022881
-9.14611e-05
-0.00171773
0.00949813
-9.4485e-05
-0.00185681
0.018456
-9.81812e-05
0.0233221
-5.01758e-05
6.78526e-05
1.82211e-05
3.71325e-05
1.06593e-05
-6.27881e-05
-4.53848e-06
-0.00028057
-2.66018e-05
-0.000663597
-5.58666e-05
-0.00119866
-8.50422e-05
-0.00167861
-9.47531e-05
-0.00153957
-9.07944e-05
-4.50908e-05
0.0044533
-0.00620459
0.00098419
0.0121202
-0.00935957
0.000875475
0.0163131
-0.00578749
0.000820376
0.0189183
-0.0038994
0.000663912
0.021114
-0.00303971
0.000435563
0.0235838
-0.00268469
0.000119158
0.0264528
-0.00213206
-0.00035814
0.0244767
0.00363246
-0.000820035
0.0266249
-0.00107197
0.00432923
-0.00974701
-0.000380207
0.005772
-0.0103515
-0.000206464
0.00873034
-0.0086573
-2.43041e-05
0.0112885
-0.00650389
3.82095e-05
0.012785
-0.0045749
3.10145e-05
0.0127295
-0.00254199
-3.40889e-05
0.0101962
0.000751603
-0.000167416
0.00525858
0.00926562
-0.000341834
0.0335633
-0.000836932
0.00172891
-0.0105765
-0.000483849
0.00412295
-0.0117996
-0.000463912
0.00596194
-0.00968232
-0.00039339
0.00735142
-0.0072642
-0.000305809
0.0078219
-0.00460756
-0.000212076
0.00678894
-0.00124654
-0.000125522
0.00370551
0.0039395
-4.75301e-05
-0.00075073
0.0137358
-3.54071e-06
0.0333437
-0.000264119
0.00104874
-0.011085
-0.000312906
0.0019011
-0.0121354
-0.00026358
0.00301889
-0.0102716
-0.000264026
0.00395926
-0.00770251
-0.00025214
0.00415494
-0.00441281
-0.000195064
0.00324454
-0.000111854
-0.000110838
0.00109347
0.00611226
-8.92669e-06
-0.00176013
0.016439
7.69992e-05
0.0316298
-2.22618e-05
0.00101813
-0.0117588
-0.000190621
0.00152679
-0.0123295
-0.000167116
0.00197193
-0.0104515
-0.000138054
0.00225563
-0.00775901
-0.000118232
0.00208171
-0.00405866
-9.33445e-05
0.00125643
0.000818099
-5.39831e-05
-0.000220631
0.00756819
1.03927e-05
-0.00184801
0.0179117
7.7959e-05
0.0297442
1.92588e-05
0.000723299
-0.0122772
-0.000111368
0.000944761
-0.0123734
-9.3875e-05
0.00113959
-0.0105221
-6.59708e-05
0.00116029
-0.00772308
-3.24032e-05
0.000823275
-0.0037233
-3.04027e-06
5.14437e-05
0.00155735
1.33705e-05
-0.00106838
0.008608
3.85932e-05
-0.00200866
0.018687
8.22144e-05
0.0276726
3.16052e-05
0.000425006
-0.0125885
-6.22392e-05
0.000486987
-0.0123442
-4.9183e-05
0.000523044
-0.0105122
-2.60547e-05
0.000399854
-0.00762093
7.27637e-06
7.45551e-06
-0.00342645
4.43461e-05
-0.000689099
0.00212214
6.28331e-05
-0.00157073
0.00935008
6.78416e-05
-0.00205334
0.0189892
8.93609e-05
0.0255312
4.38725e-05
0.000188128
-0.0127176
-3.40656e-05
0.000169814
-0.0122833
-2.45694e-05
0.000112525
-0.0104478
-6.3992e-06
-8.60328e-05
-0.00746986
2.09254e-05
-0.000496881
-0.00313604
5.73474e-05
-0.00113639
0.00258398
8.62032e-05
-0.00185102
0.00987967
9.05473e-05
-0.00197886
0.0189229
9.59718e-05
0.0234525
4.96297e-05
6.38026e-05
-1.84669e-05
2.91856e-05
-1.2097e-05
-7.82025e-05
2.29958e-06
-0.000309543
2.36612e-05
-0.0007139
5.23323e-05
-0.00127304
8.09998e-05
-0.00177899
9.13031e-05
-0.00163565
8.84703e-05
4.44055e-05
0.00439574
-0.00639378
0.00302446
0.0119999
-0.0094099
0.00269426
0.0161895
-0.00586027
0.00248855
0.0188183
-0.0039623
0.00199586
0.0210257
-0.0030734
0.00130053
0.0234834
-0.00268729
0.000348277
0.0263914
-0.00212698
-0.00113937
0.0246218
0.00354868
-0.00259932
0.0267357
-0.00318608
0.00414384
-0.00948769
-0.00143178
0.00559784
-0.0103574
-0.000715849
0.008584
-0.00869446
-0.000177328
0.0111938
-0.0065431
8.51654e-06
0.0127513
-0.0046129
1.29391e-05
0.0127688
-0.00259337
-0.000145614
0.0103362
0.000645441
-0.000507193
0.00546891
0.00900204
-0.000927939
0.0334907
-0.00212302
0.00167756
-0.0103472
-0.00131318
0.00400222
-0.0117923
-0.00136186
0.00584628
-0.0097065
-0.00122705
0.00728869
-0.00730295
-0.000988563
0.00783681
-0.00466899
-0.000704087
0.00690128
-0.00135839
-0.000424967
0.00393116
0.00371824
-0.00015023
-0.00044918
0.0132817
9.71512e-05
0.033179
-0.000401697
0.00104971
-0.010884
-0.0008279
0.00188533
-0.0121229
-0.000772908
0.00299365
-0.0103289
-0.000752713
0.00395447
-0.00779465
-0.000722244
0.00420503
-0.00453345
-0.000581412
0.00337703
-0.00028829
-0.00035301
0.0013243
0.00581112
-4.90888e-05
-0.00148313
0.0158949
0.000271222
0.0314498
0.000223806
0.00103752
-0.0116249
-0.000489591
0.00155044
-0.0123463
-0.000459072
0.00200031
-0.0105435
-0.000374867
0.00230156
-0.00790179
-0.000313141
0.00216319
-0.00423522
-0.000253466
0.00139674
0.000591083
-0.00016701
-8.3009e-06
0.00722185
4.68697e-06
-0.00163066
0.0173538
0.000241402
0.0295659
0.000272498
0.000736062
-0.0121713
-0.000302712
0.000965376
-0.012406
-0.000264697
0.00117054
-0.0106318
-0.000183609
0.00121283
-0.00789342
-8.34777e-05
0.000909821
-0.00393795
2.5262e-06
0.000185236
0.00129407
3.49181e-05
-0.000880245
0.00823752
8.83927e-05
-0.00183145
0.0181516
0.000235579
0.0275047
0.000261327
0.000435174
-0.0125011
-0.000169118
0.000503704
-0.0123872
-0.000137452
0.000549861
-0.0106322
-7.2412e-05
0.000446155
-0.00780366
2.09373e-05
8.41831e-05
-0.0036589
0.000127131
-0.000571721
0.00183895
0.000173808
-0.00140972
0.00897146
0.00017189
-0.00190492
0.0184907
0.000245468
0.0253853
0.000258393
0.000194859
-0.0126399
-9.11697e-05
0.000181499
-0.012332
-6.70109e-05
0.000133063
-0.010573
-1.75028e-05
-4.85137e-05
-0.00765765
5.63355e-05
-0.000432634
-0.00337497
0.000157485
-0.00103857
0.00229322
0.000237873
-0.0017185
0.00950426
0.000237686
-0.00185758
0.0184636
0.000262168
0.0233276
0.000249755
6.83861e-05
-5.38093e-05
3.78289e-05
-3.53379e-05
-6.21797e-05
4.33325e-06
-0.000280136
6.19318e-05
-0.000663342
0.000139737
-0.00119896
0.000220379
-0.00167927
0.000244164
-0.00154021
0.000249357
0.000214267
0.00422321
-0.00628856
0.00511852
0.0116532
-0.00949587
0.00478581
0.0158616
-0.00601935
0.00431445
0.0185846
-0.0041061
0.00337696
0.0208348
-0.00313443
0.0021833
0.0232262
-0.00265888
0.000614081
0.0261716
-0.00206868
-0.0020172
0.0250367
0.00325267
-0.00471805
0.0266674
-0.00481775
0.00358645
-0.00821247
-0.00305835
0.00492154
-0.0101793
-0.00135918
0.00808467
-0.00872479
-0.000630486
0.0108953
-0.00658675
-0.000317151
0.0126488
-0.00466735
-0.00020666
0.0128816
-0.00270914
-0.000327947
0.0107484
0.000334024
-0.000776859
0.00607827
0.00812863
-0.00113413
0.0326217
-0.00199966
0.00166179
-0.00965393
-0.00158303
0.003626
-0.0117136
-0.00180702
0.00544718
-0.00984286
-0.00192844
0.00706004
-0.00745694
-0.00172772
0.00783936
-0.00485484
-0.00129383
0.00717944
-0.00167526
-0.000798022
0.00453032
0.00308067
-0.000247432
0.00037123
0.0119247
0.000460148
0.0320429
0.000548204
0.00114295
-0.0103815
-0.00128032
0.00187787
-0.0120877
-0.00114582
0.00290596
-0.0105642
-0.00106169
0.00391082
-0.00813755
-0.00104629
0.00430257
-0.00492386
-0.000903477
0.00368744
-0.000798095
-0.000614623
0.00189343
0.00497815
-0.000152344
-0.000766394
0.0143425
0.000513315
0.0303786
0.00112162
0.00106162
-0.0112315
-0.000705843
0.00160248
-0.0124021
-0.000689085
0.00206258
-0.0108536
-0.000548096
0.00240528
-0.00836352
-0.000430877
0.00234888
-0.00477355
-0.000347658
0.00172227
-5.05737e-05
-0.000287831
0.000498415
0.00629603
-8.92526e-05
-0.00109129
0.0158124
0.000361174
0.028579
0.000980732
0.000766551
-0.0118435
-0.000458429
0.00101314
-0.0125051
-0.000409562
0.00123894
-0.0109781
-0.00028597
0.00133102
-0.00840876
-0.00013098
0.00110773
-0.00456012
1.21909e-05
0.000492874
0.000570101
2.90821e-05
-0.000443692
0.00727393
4.70917e-05
-0.00140592
0.0167081
0.000302073
0.0266048
0.000829571
0.000456477
-0.0122141
-0.000255997
0.000540054
-0.0125109
-0.000216097
0.000608962
-0.0109979
-0.000122167
0.000550519
-0.00834036
1.06138e-05
0.00025734
-0.00431061
0.000170648
-0.000309857
0.00108554
0.000225548
-0.00105337
0.00801559
0.000173747
-0.00156341
0.0171751
0.000288538
0.0245894
0.000710475
0.000208097
-0.0123759
-0.000138322
0.000205843
-0.0124691
-0.000107127
0.000177084
-0.0109483
-3.8728e-05
3.43654e-05
-0.00820248
6.09547e-05
-0.000289978
-0.00403163
0.000202769
-0.000831027
0.00154358
0.0003209
-0.00144411
0.00858737
0.000279003
-0.00159519
0.0172825
0.000305937
0.0226281
0.000615765
7.63146e-05
-8.25064e-05
5.41098e-05
-5.8739e-05
-2.98406e-05
-5.02108e-06
-0.000217891
7.05632e-05
-0.000556193
0.000173141
-0.00105607
0.000295303
-0.00149317
0.00030659
-0.00135132
0.000310142
0.000479828
0.00382207
-0.00458171
0.00614354
0.011192
-0.00898664
0.0064849
0.01553
-0.00559906
0.00558626
0.018531
-0.00384722
0.0042295
0.0209068
-0.00287824
0.00268385
0.0231391
-0.00238387
0.00076339
0.0255698
-0.00186623
-0.00258391
0.0253419
0.00216359
-0.00665589
0.0244683
-0.00394613
0.00196261
-0.00473541
-0.00487087
0.00315605
-0.00926659
-0.00227373
0.00700336
-0.00812875
-0.00192826
0.0102842
-0.00615338
-0.00128009
0.0123978
-0.00438987
-0.000803228
0.012963
-0.00267033
-0.00060521
0.0111969
-0.000140359
-0.000736642
0.00663359
0.00628277
-0.000691132
0.028727
0.000374391
0.0017459
-0.00753934
-0.000670898
0.00296224
-0.0112706
-0.00103854
0.004759
-0.0102206
-0.00162222
0.00657067
-0.00795415
-0.0017284
0.00763326
-0.00530946
-0.00143115
0.00731332
-0.00221544
-0.000930492
0.00505686
0.00212733
-0.000257832
0.00114827
0.00987408
0.000777395
0.0282901
0.00213302
0.00133088
-0.00905198
-0.00114795
0.00197522
-0.0119939
-0.00107942
0.00287869
-0.011191
-0.000997405
0.00383621
-0.00897984
-0.000976525
0.0042987
-0.00576707
-0.000906594
0.00385908
-0.0016585
-0.000730683
0.00229913
0.00386292
-0.000327312
-0.000246741
0.0124214
0.000511877
0.027207
0.00195793
0.00112852
-0.0102517
-0.000647035
0.00167672
-0.0125216
-0.000717115
0.00212662
-0.0115559
-0.000637041
0.00248928
-0.00929822
-0.000476781
0.00248311
-0.00575827
-0.000350346
0.00194434
-0.00105417
-0.000353055
0.000832309
0.00516505
-0.000279083
-0.000802514
0.0141516
0.000265916
0.0258439
0.00154134
0.000811037
-0.0110386
-0.000485218
0.00106898
-0.0126848
-0.000506745
0.00129281
-0.0116688
-0.000399094
0.00141813
-0.00933312
-0.000222454
0.00125549
-0.00556278
-2.10705e-05
0.000713023
-0.000461879
-2.07451e-05
-0.00017143
0.00620089
-0.000104226
-0.00120087
0.0152921
0.000191044
0.0242192
0.00125341
0.000479849
-0.0114824
-0.000293423
0.00056958
-0.0126946
-0.000297338
0.000648059
-0.0116646
-0.000205832
0.000628444
-0.00924253
-6.10376e-05
0.000391698
-0.00528808
0.000132397
-0.000122993
0.000108549
0.000169741
-0.000847727
0.00705802
4.13287e-05
-0.00141132
0.0159651
0.000179105
0.022497
0.00102128
0.000218534
-0.0116772
-0.000162944
0.000220106
-0.0126506
-0.000153357
0.000201799
-0.011598
-8.75236e-05
9.61257e-05
-0.0090949
1.86719e-05
-0.000178081
-0.00497284
0.000161635
-0.000694102
0.000671337
0.000274096
-0.00131048
0.00777405
0.000179393
-0.00150488
0.0162372
0.000228228
0.0207374
0.000870582
7.94807e-05
-8.93533e-05
5.881e-05
-7.17987e-05
-1.41006e-05
-2.18965e-05
-0.000174323
4.9051e-05
-0.000483923
0.000144737
-0.00100374
0.000290918
-0.00144115
0.000270766
-0.00131724
0.000320431
0.000687957
0.00328916
0.00295805
0.0126863
-0.00289672
0.0170913
0.00120084
0.0205978
0.000730271
0.0228555
0.000428241
0.0240802
-0.000461933
0.0232637
-0.00176888
0.0196672
-0.00306146
0.0157202
-0.00141604
-0.000570896
-0.000426183
-0.00615479
0.00422859
-0.00536244
0.00788241
-0.00419059
0.0106136
-0.00310016
0.011608
-0.00205941
0.00989236
-0.000789911
0.00341559
0.00272331
0.0195099
0.0012184
-0.00252772
0.00161142
-0.00758789
0.00325052
-0.00861503
0.00496355
-0.0076245
0.00614383
-0.00570731
0.00609147
-0.0029354
0.00401451
0.00102999
-0.000555551
0.00807057
0.0210874
0.00112721
-0.00483263
0.00187751
-0.00942569
0.00266287
-0.010399
0.00351167
-0.00944892
0.00386532
-0.00696608
0.00330003
-0.00309961
0.001484
0.00251923
-0.00179142
0.011858
0.0212539
0.000972418
-0.00646251
0.0015338
-0.010709
0.00201435
-0.0115191
0.00244959
-0.0103616
0.00249029
-0.00735701
0.00179558
-0.00275753
4.81334e-05
0.00398787
-0.00222348
0.0143955
0.0205717
0.000742485
-0.0076932
0.00102966
-0.0115052
0.00126917
-0.012159
0.00144199
-0.0107575
0.00130994
-0.0072462
0.000599786
-0.00206805
-0.0010344
0.00551786
-0.00237374
0.0159259
0.0194514
0.000439668
-0.00842744
0.000546512
-0.0119102
0.000635827
-0.0124548
0.000653858
-0.010837
0.000418243
-0.00687833
-0.000329196
-0.0011509
-0.00173513
0.00696516
-0.00236918
0.016739
0.0181035
0.000189196
-0.00878003
0.000189995
-0.0120648
0.000178093
-0.0125308
0.000101159
-0.0107416
-0.000172263
-0.00644333
-0.0010013
-4.77236e-05
-0.00217421
0.00831748
-0.00229459
0.0170877
0.0166795
5.69324e-05
2.29641e-05
-4.41953e-05
-0.000184555
-0.000532525
-0.00147011
-0.00219196
-0.00191906
)
;

boundaryField
{
    inlet
    {
        type            calculated;
        value           uniform 0;
    }
    outlet
    {
        type            calculated;
        value           nonuniform List<scalar> 
81
(
-0.00905393
-0.011829
-0.0124621
-0.0126877
-0.0127447
-0.0126729
-0.0124236
-0.0117498
-0.00892633
-0.0121734
-0.0126564
-0.0124451
-0.0122875
-0.0122259
-0.0122782
-0.0124236
-0.0126169
-0.0121027
-0.0125157
-0.0115268
-0.0108675
-0.0104811
-0.0103473
-0.010475
-0.0108551
-0.0115082
-0.0124855
-0.0105548
-0.00892082
-0.00803031
-0.00748217
-0.00728878
-0.00747798
-0.00802307
-0.00891318
-0.0105522
-0.00594312
-0.00463864
-0.00373253
-0.00308305
-0.00283988
-0.00307917
-0.00372673
-0.00463485
-0.00595062
0.00117213
0.00118667
0.00196002
0.00268426
0.00297707
0.00268946
0.00196853
0.00119556
0.00118079
0.00930628
0.00823776
0.00895233
0.00982565
0.0101996
0.00983171
0.00896207
0.00824729
0.0093101
0.0171194
0.0160892
0.0170673
0.0181562
0.0186003
0.0181637
0.0170798
0.016103
0.0171352
0.0154258
0.0191975
0.0210009
0.0216122
0.0217274
0.0216175
0.0210113
0.019212
0.0154484
)
;
    }
    lowerWall
    {
        type            calculated;
        value           uniform 0;
    }
    upperWall
    {
        type            calculated;
        value           uniform 0;
    }
}


// ************************************************************************* //
