/*--------------------------------*- C++ -*----------------------------------*\
  =========                 |
  \\      /  F ield         | OpenFOAM: The Open Source CFD Toolbox
   \\    /   O peration     | Website:  https://openfoam.org
    \\  /    A nd           | Version:  11
     \\/     M anipulation  |
\*---------------------------------------------------------------------------*/
FoamFile
{
    format      ascii;
    class       volVectorField;
    location    "900";
    object      U;
}
// * * * * * * * * * * * * * * * * * * * * * * * * * * * * * * * * * * * * * //

dimensions      [0 1 -1 0 0 0 0];

internalField   nonuniform List<vector> 
729
(
(1.09588 -2.797 -0.544397)
(0.840114 -1.90404 -0.562412)
(1.46442 -1.28707 -0.559062)
(1.88494 -0.7425 -0.447085)
(2.19173 -0.422707 -0.312299)
(2.35489 -0.236055 -0.150227)
(2.48931 -0.135154 0.131284)
(1.69782 -0.0156557 0.44426)
(3.22765 1.24433 0.333081)
(-0.602812 0.337832 0.154958)
(0.0405405 0.846209 0.323791)
(0.205014 0.418469 0.168159)
(0.633377 0.321358 0.136164)
(0.95156 0.176162 0.0973457)
(1.15602 0.0287725 0.0721987)
(1.1737 -0.144277 0.0731105)
(0.666346 -0.190406 0.0540335)
(0.346269 1.7558 0.0447902)
(-0.19803 -0.0924502 -0.0904899)
(0.116758 -0.673184 0.082158)
(0.21772 -0.778028 0.102294)
(0.409418 -0.705066 0.141146)
(0.566793 -0.544651 0.139195)
(0.639028 -0.333804 0.106958)
(0.584483 -0.0416491 0.040466)
(0.20996 0.500394 -0.0821115)
(-0.233101 2.07112 -0.191903)
(0.0473076 -0.401661 0.068868)
(0.144271 -0.865618 0.103632)
(0.212243 -0.96496 0.0774778)
(0.304243 -0.880779 0.0738039)
(0.374014 -0.658506 0.0770664)
(0.374396 -0.314029 0.0774742)
(0.30115 0.182406 0.0392088)
(-0.00782882 1.03896 -0.0855798)
(-0.310138 2.16704 -0.236671)
(0.0610439 -0.609586 0.043573)
(0.124955 -1.04081 0.0507508)
(0.17224 -1.11759 0.0433207)
(0.22089 -1.01187 0.0286698)
(0.249789 -0.737871 0.0214145)
(0.228146 -0.310394 0.0315236)
(0.141245 0.324553 0.0277868)
(-0.127921 1.3523 -0.0703458)
(-0.287868 2.11707 -0.209039)
(0.0490402 -0.73639 0.0339277)
(0.0876992 -1.13136 0.0356208)
(0.112035 -1.19635 0.0266877)
(0.133515 -1.06545 0.0117886)
(0.138568 -0.738976 -0.00382857)
(0.108814 -0.249412 -0.000507814)
(0.013586 0.47685 0.00913294)
(-0.203736 1.53795 -0.0628203)
(-0.253261 2.00831 -0.17627)
(0.0289255 -0.832132 0.0202237)
(0.0477745 -1.18677 0.0193379)
(0.0571211 -1.2399 0.0128292)
(0.0625826 -1.08509 0.00172728)
(0.0552799 -0.708191 -0.0137672)
(0.0176665 -0.16372 -0.0171232)
(-0.0823366 0.63177 -0.00602357)
(-0.245895 1.64544 -0.0587741)
(-0.220457 1.8756 -0.147274)
(0.0129698 -0.881079 0.0115033)
(0.0179841 -1.2089 0.010428)
(0.0172795 -1.25316 0.00476787)
(0.0133285 -1.07634 -0.00330987)
(0.000399378 -0.657691 -0.0153432)
(-0.0475819 -0.058317 -0.0261598)
(-0.151026 0.764866 -0.0201124)
(-0.267363 1.70544 -0.0592482)
(-0.191085 1.75121 -0.126407)
(0.00583765 -0.901001 0.00781504)
(0.00443861 -1.21595 0.00637928)
(-0.000686131 -1.25305 0.00202527)
(-0.00921014 -1.06109 -0.00429648)
(-0.026612 -0.608027 -0.0142243)
(-0.0958383 0.0899159 -0.0287488)
(-0.186836 0.917837 -0.031717)
(-0.247238 1.70998 -0.0605471)
(-0.146071 1.55919 -0.100532)
(0.442746 -3.98227 -0.516423)
(0.834939 -2.76501 -0.500205)
(1.33719 -1.62956 -0.465701)
(1.72063 -0.942374 -0.365124)
(1.98612 -0.55511 -0.232504)
(2.20305 -0.298964 -0.0542997)
(2.44653 -0.0346882 0.249431)
(2.23328 0.71212 0.562995)
(3.79693 2.52357 0.490486)
(0.0466201 0.884296 0.38999)
(0.172049 0.188189 0.228241)
(0.518878 -0.0888165 0.111626)
(0.896697 -0.155341 0.0564251)
(1.16696 -0.184243 0.033628)
(1.30679 -0.201138 0.0422249)
(1.28971 -0.179213 0.0911248)
(0.834101 0.220669 0.124258)
(0.836469 2.67004 0.168935)
(-0.00304162 -0.889731 0.105499)
(0.21838 -1.21803 0.16795)
(0.371151 -1.04674 0.224628)
(0.575537 -0.795847 0.209118)
(0.736789 -0.549977 0.159114)
(0.783556 -0.290247 0.0977432)
(0.682161 0.0725578 0.0316012)
(0.278065 0.758218 -0.0603556)
(0.107613 2.7839 -0.120453)
(0.0837733 -0.821744 0.115949)
(0.156572 -1.15144 0.115089)
(0.229838 -1.0876 0.109957)
(0.334865 -0.86995 0.112292)
(0.422268 -0.568865 0.100655)
(0.433456 -0.195504 0.0706154)
(0.355176 0.315545 0.0203634)
(0.064162 1.15097 -0.0606882)
(-0.0526857 2.8223 -0.173832)
(0.0702899 -1.0067 0.0694913)
(0.143002 -1.2515 0.0778905)
(0.187917 -1.1509 0.0651165)
(0.232178 -0.9269 0.0509694)
(0.257331 -0.584941 0.0390737)
(0.236546 -0.136028 0.0334287)
(0.170932 0.462388 0.0153553)
(-0.0407299 1.35688 -0.0324472)
(-0.0809137 2.69252 -0.139223)
(0.0514327 -1.08215 0.0484836)
(0.0948437 -1.26884 0.0490589)
(0.116953 -1.16454 0.0372627)
(0.137335 -0.934572 0.0196607)
(0.140881 -0.56729 0.001026)
(0.108289 -0.0753565 -0.000791115)
(0.0482194 0.572866 0.0017823)
(-0.112899 1.48504 -0.0177215)
(-0.0899785 2.50898 -0.106332)
(0.0293856 -1.14311 0.0274645)
(0.0525384 -1.2749 0.0267126)
(0.060019 -1.16975 0.017503)
(0.0654631 -0.930785 0.00257483)
(0.0563233 -0.544443 -0.0163218)
(0.0210087 -0.0176706 -0.0213325)
(-0.0358214 0.665946 -0.0107414)
(-0.156821 1.56953 -0.0126178)
(-0.0963139 2.32795 -0.0834089)
(0.0137955 -1.17004 0.0148674)
(0.021928 -1.26982 0.0131294)
(0.0211789 -1.1633 0.00625164)
(0.0164861 -0.914854 -0.00459022)
(0.00021436 -0.51 -0.0196981)
(-0.0372944 0.0412554 -0.0318076)
(-0.0951352 0.745874 -0.0220323)
(-0.182664 1.62379 -0.0141146)
(-0.099214 2.17571 -0.0683404)
(0.00683761 -1.18059 0.00940803)
(0.00800507 -1.26563 0.0071804)
(0.00337243 -1.15493 0.00158184)
(-0.00674644 -0.8972 -0.00635341)
(-0.0283495 -0.472667 -0.0164683)
(-0.0704628 0.107393 -0.0295437)
(-0.123561 0.817048 -0.0269172)
(-0.174187 1.61505 -0.019774)
(-0.0883584 1.94225 -0.0515435)
(0.427241 -4.0181 -0.359373)
(0.878869 -2.89409 -0.363949)
(1.3763 -1.66616 -0.337453)
(1.7407 -0.95856 -0.267434)
(1.98354 -0.573609 -0.17285)
(2.2073 -0.325748 -0.0455206)
(2.44586 -0.0370767 0.158131)
(2.33034 0.913032 0.370021)
(3.73397 2.94611 0.410412)
(0.319597 0.753181 0.208078)
(0.325764 0.040722 0.107467)
(0.64418 -0.187615 0.0364204)
(0.976982 -0.238593 0.00938082)
(1.20822 -0.245975 0.00556389)
(1.31622 -0.239929 0.0230394)
(1.25897 -0.178299 0.0677064)
(0.788574 0.353224 0.119559)
(0.794772 2.97922 0.24531)
(0.0339321 -1.17538 0.130968)
(0.267618 -1.31144 0.169322)
(0.446326 -1.04573 0.162336)
(0.637728 -0.778384 0.132785)
(0.77155 -0.52911 0.0952054)
(0.788317 -0.254523 0.0580513)
(0.649885 0.150249 0.0210748)
(0.204353 0.941 -0.0151469)
(0.0582308 3.12237 0.03097)
(0.0824328 -0.943887 0.0975696)
(0.142525 -1.16674 0.0947249)
(0.226713 -1.02516 0.092709)
(0.344983 -0.790396 0.0910901)
(0.430166 -0.495306 0.0749065)
(0.426602 -0.119755 0.0473542)
(0.327644 0.425288 0.00929349)
(0.00931176 1.36223 -0.0340568)
(-0.0947275 3.17354 -0.0423913)
(0.066569 -1.11292 0.058682)
(0.136284 -1.24703 0.0564222)
(0.181781 -1.083 0.0453843)
(0.226975 -0.835062 0.0366679)
(0.248243 -0.48746 0.0300228)
(0.218883 -0.0374143 0.0216223)
(0.142716 0.579078 0.00191618)
(-0.0758884 1.54079 -0.0294719)
(-0.10761 3.00188 -0.0478725)
(0.0481737 -1.16219 0.0370478)
(0.0905467 -1.24871 0.0327064)
(0.111934 -1.0938 0.0222148)
(0.132752 -0.841569 0.00921004)
(0.130507 -0.467989 -0.00200087)
(0.0888925 0.0285253 -0.00480926)
(0.021374 0.684719 -0.00976755)
(-0.137937 1.63748 -0.0291833)
(-0.106577 2.76529 -0.0461862)
(0.0274222 -1.21423 0.0205035)
(0.0508729 -1.25488 0.0168567)
(0.0574558 -1.10197 0.00860809)
(0.0611423 -0.840296 -0.00312874)
(0.0471104 -0.445138 -0.0166561)
(0.00377335 0.0841153 -0.0220632)
(-0.0576955 0.768214 -0.0209922)
(-0.175141 1.69923 -0.0312994)
(-0.107489 2.54744 -0.0451426)
(0.0127665 -1.2366 0.0107655)
(0.0214053 -1.24986 0.00801558)
(0.0198802 -1.0975 0.00181598)
(0.0132855 -0.826013 -0.00728722)
(-0.00777174 -0.415202 -0.0199677)
(-0.0504861 0.134219 -0.0300597)
(-0.109836 0.835726 -0.0299603)
(-0.194213 1.73656 -0.0345291)
(-0.106287 2.37352 -0.0435861)
(0.00631795 -1.2449 0.00690231)
(0.0079899 -1.2452 0.0044304)
(0.00280559 -1.08944 -0.000656798)
(-0.00931463 -0.808082 -0.00785986)
(-0.0346426 -0.381386 -0.0176662)
(-0.0767232 0.185527 -0.0281543)
(-0.12873 0.888028 -0.0314582)
(-0.178385 1.71152 -0.0341629)
(-0.0918541 2.12274 -0.0373505)
(0.440817 -4.0591 -0.171878)
(0.9111 -2.9292 -0.171864)
(1.40965 -1.66219 -0.160616)
(1.76845 -0.948922 -0.129977)
(2.00383 -0.571025 -0.0845526)
(2.22993 -0.332194 -0.0211738)
(2.46275 -0.0361351 0.0759261)
(2.35826 0.975282 0.172654)
(3.66866 3.07324 0.212697)
(0.387108 0.667004 0.0805511)
(0.393963 0.0119802 0.0470416)
(0.703742 -0.192116 0.0126272)
(1.01615 -0.241237 -0.00162287)
(1.22749 -0.248508 -0.00187438)
(1.31663 -0.241567 0.00995671)
(1.23199 -0.171249 0.0356314)
(0.744728 0.40183 0.0687781)
(0.724646 3.02741 0.159366)
(0.0458504 -1.23976 0.0816695)
(0.296313 -1.31075 0.0935091)
(0.492341 -1.03154 0.0827424)
(0.670704 -0.764901 0.0641054)
(0.782837 -0.514388 0.0448523)
(0.775056 -0.230068 0.0271916)
(0.606616 0.199351 0.0112386)
(0.130906 1.04888 0.00202054)
(-0.0183697 3.19713 0.0531956)
(0.0811571 -0.994062 0.0489648)
(0.139197 -1.16983 0.0497643)
(0.234256 -1.00725 0.0526165)
(0.355267 -0.765024 0.049994)
(0.429169 -0.466038 0.0391298)
(0.407407 -0.076892 0.0228718)
(0.284804 0.502137 0.0030494)
(-0.0601159 1.51621 -0.0132962)
(-0.165785 3.28389 0.00629906)
(0.0641033 -1.1524 0.0318344)
(0.132797 -1.24091 0.0302964)
(0.176847 -1.05407 0.0255805)
(0.219951 -0.792023 0.0218413)
(0.235155 -0.438586 0.017423)
(0.194459 0.0221646 0.0103353)
(0.101536 0.66966 -0.00174796)
(-0.131866 1.70154 -0.0144975)
(-0.165068 3.11434 -0.00365006)
(0.0460183 -1.19424 0.0193072)
(0.0871361 -1.23842 0.0171677)
(0.106913 -1.05986 0.0118968)
(0.124942 -0.791781 0.00505685)
(0.11546 -0.408341 -0.000800468)
(0.0641597 0.0987334 -0.00362547)
(-0.0168801 0.781005 -0.00798555)
(-0.18268 1.78859 -0.015783)
(-0.15167 2.8627 -0.0065513)
(0.0260069 -1.24183 0.0106921)
(0.0484658 -1.24209 0.00872658)
(0.0533145 -1.06548 0.00424378)
(0.054132 -0.787096 -0.0024342)
(0.0342133 -0.380473 -0.00991133)
(-0.0175865 0.159336 -0.0134408)
(-0.0902718 0.86559 -0.0139594)
(-0.211037 1.83765 -0.0172539)
(-0.142962 2.63128 -0.00843687)
(0.0117331 -1.26117 0.00547241)
(0.0199728 -1.23537 0.00397141)
(0.0169624 -1.0598 0.000449702)
(0.00776341 -0.771731 -0.00495122)
(-0.0181943 -0.349585 -0.0122103)
(-0.06755 0.210182 -0.0179094)
(-0.135287 0.930695 -0.0184567)
(-0.222055 1.86251 -0.0186264)
(-0.133769 2.4486 -0.00921843)
(0.00579407 -1.26798 0.00368294)
(0.00705842 -1.22974 0.0022235)
(0.000720271 -1.05096 -0.000762918)
(-0.0135842 -0.753238 -0.00512122)
(-0.0428334 -0.316253 -0.0108984)
(-0.0887909 0.258347 -0.0166769)
(-0.145853 0.975778 -0.0185286)
(-0.198099 1.82141 -0.0173477)
(-0.111239 2.1864 -0.00807908)
(0.447487 -4.09887 0.009205)
(0.92336 -2.94181 0.0030046)
(1.42176 -1.66031 0.00230731)
(1.77939 -0.944522 0.00168346)
(2.01295 -0.568839 0.00136102)
(2.23942 -0.332898 0.00117259)
(2.46934 -0.0343785 0.00104004)
(2.36588 0.992917 0.000806945)
(3.64795 3.10602 0.000223419)
(0.403208 0.646598 -0.00143507)
(0.41329 0.00474367 0.00195173)
(0.721647 -0.191442 0.0021719)
(1.0284 -0.239008 0.00158894)
(1.23377 -0.246675 0.00119815)
(1.31666 -0.24025 0.000964216)
(1.22287 -0.167996 0.000787532)
(0.729295 0.415423 0.000605653)
(0.701058 3.02741 0.000336536)
(0.0512993 -1.25165 -0.00469488)
(0.307818 -1.31123 0.00141564)
(0.507304 -1.02846 0.0017349)
(0.680819 -0.76044 0.00100206)
(0.785432 -0.508779 0.000708308)
(0.768904 -0.221099 0.000582903)
(0.58976 0.216324 0.000479045)
(0.103253 1.08504 0.000358503)
(-0.0467613 3.19849 0.000189958)
(0.0814683 -1.01132 -0.0043476)
(0.139551 -1.17298 0.000380766)
(0.237809 -1.00453 0.00036929)
(0.358539 -0.758883 -1.90215e-05)
(0.427593 -0.457066 3.35404e-05)
(0.398661 -0.0619915 0.000138978)
(0.266799 0.529527 0.000198631)
(-0.087767 1.56894 0.000198526)
(-0.193348 3.30056 0.000116075)
(0.0636823 -1.1633 -0.00177048)
(0.131602 -1.23821 -0.00109037)
(0.174752 -1.04549 -0.000523895)
(0.216745 -0.778763 -0.000438358)
(0.229287 -0.422686 -0.000311376)
(0.183824 0.0432187 -0.000157358)
(0.0837251 0.703279 -1.11224e-05)
(-0.15503 1.75937 7.55381e-05)
(-0.188186 3.13601 7.15395e-05)
(0.0451289 -1.20346 -0.000849451)
(0.0857625 -1.23463 -0.000446844)
(0.104742 -1.04894 -0.000357403)
(0.121283 -0.77522 -0.000400184)
(0.108768 -0.387751 -0.000385045)
(0.0534083 0.124268 -0.000289452)
(-0.0335736 0.817966 -0.00013766)
(-0.201965 1.84472 -1.78177e-05)
(-0.170361 2.88188 3.51337e-05)
(0.0254307 -1.24933 -0.000516164)
(0.047389 -1.23712 -0.00033728)
(0.0514363 -1.0532 -0.000297074)
(0.050988 -0.768761 -0.00032263)
(0.0284021 -0.357316 -0.000346085)
(-0.0270823 0.187527 -0.000306236)
(-0.104983 0.904039 -0.000193218)
(-0.227296 1.89021 -7.81081e-05)
(-0.158119 2.64728 5.34172e-06)
(0.0113121 -1.26761 -0.000430127)
(0.0192826 -1.2297 -0.000309028)
(0.0156346 -1.04683 -0.000278351)
(0.00525443 -0.752731 -0.000280817)
(-0.022907 -0.325527 -0.000289651)
(-0.0754227 0.239609 -0.000266859)
(-0.147501 0.969334 -0.00020019)
(-0.235537 1.91132 -0.000108375)
(-0.145974 2.46251 -1.41057e-05)
(0.00547544 -1.27389 -1.41966e-05)
(0.00654063 -1.22371 -7.17958e-05)
(-0.000332052 -1.03767 -0.000113501)
(-0.0156388 -0.733942 -0.000150484)
(-0.0466283 -0.291976 -0.000181916)
(-0.0948023 0.287644 -0.000207071)
(-0.154991 1.01315 -0.000176941)
(-0.208674 1.86579 -0.000115791)
(-0.120418 2.19823 -2.46877e-05)
(0.434782 -4.06582 0.205458)
(0.909898 -2.93707 0.180258)
(1.4094 -1.66431 0.165776)
(1.76838 -0.949584 0.133322)
(2.00382 -0.571109 0.0871508)
(2.22999 -0.332141 0.0234108)
(2.46277 -0.0359568 -0.0739176)
(2.35827 0.975524 -0.17115)
(3.66867 3.07342 -0.212478)
(0.39474 0.663322 -0.0836068)
(0.393494 0.00536281 -0.0416097)
(0.704526 -0.193473 -0.00732661)
(1.01604 -0.241471 0.00497146)
(1.22729 -0.248384 0.00426935)
(1.3165 -0.241366 -0.00806123)
(1.23187 -0.170984 -0.0341057)
(0.74452 0.402258 -0.0676616)
(0.724627 3.02791 -0.158921)
(0.049203 -1.23945 -0.0953959)
(0.297816 -1.31602 -0.0944134)
(0.494265 -1.0336 -0.0800874)
(0.670913 -0.765025 -0.0621841)
(0.782661 -0.514167 -0.0433884)
(0.774843 -0.229744 -0.0260236)
(0.606403 0.199752 -0.0103036)
(0.130641 1.04946 -0.00136276)
(-0.0184842 3.1977 -0.0529718)
(0.0833366 -0.986352 -0.0573068)
(0.137971 -1.16929 -0.0530042)
(0.235808 -1.00733 -0.053133)
(0.355825 -0.764686 -0.0501759)
(0.429086 -0.465747 -0.0390509)
(0.407267 -0.0765283 -0.0226043)
(0.284623 0.502603 -0.00266643)
(-0.0603624 1.5169 0.0136595)
(-0.16593 3.28449 -0.00617238)
(0.06528 -1.14821 -0.0348194)
(0.133718 -1.23905 -0.0319365)
(0.177275 -1.05383 -0.0265306)
(0.219996 -0.791452 -0.0227084)
(0.235123 -0.438128 -0.0180463)
(0.194369 0.0226138 -0.0106616)
(0.101391 0.670188 0.0017167)
(-0.132064 1.70229 0.0146264)
(-0.165205 3.11493 0.00370737)
(0.0459277 -1.19139 -0.0208613)
(0.0873954 -1.23708 -0.0181994)
(0.107126 -1.05906 -0.0126514)
(0.124966 -0.791189 -0.00583052)
(0.11547 -0.407857 5.69307e-05)
(0.0641037 0.0992222 0.00305583)
(-0.0169932 0.781581 0.00771269)
(-0.182831 1.78936 0.015735)
(-0.151784 2.86326 0.00655046)
(0.0260959 -1.23995 -0.0116627)
(0.048651 -1.24101 -0.00941417)
(0.0534645 -1.06479 -0.00482699)
(0.0542072 -0.786586 0.00182211)
(0.0342519 -0.380013 0.00925829)
(-0.0176069 0.159841 0.0128539)
(-0.090354 0.866194 0.0135867)
(-0.211152 1.83843 0.0170937)
(-0.143053 2.63184 0.00838968)
(0.0117989 -1.2595 -0.00630486)
(0.0201134 -1.23433 -0.00458248)
(0.0170991 -1.05913 -0.000996198)
(0.00786926 -0.771256 0.00441243)
(-0.0181271 -0.349136 0.0116643)
(-0.0675436 0.210688 0.0174058)
(-0.135347 0.931308 0.0180777)
(-0.222147 1.86328 0.0184115)
(-0.133842 2.44915 0.00914297)
(0.00583363 -1.26652 -0.00370316)
(0.00712674 -1.22883 -0.00236828)
(0.000788493 -1.05037 0.000542001)
(-0.0135306 -0.752837 0.00483439)
(-0.0428062 -0.315879 0.0105569)
(-0.0887813 0.258862 0.0162879)
(-0.145904 0.976387 0.018196)
(-0.198177 1.82216 0.0171191)
(-0.111294 2.18694 0.00799317)
(0.399438 -3.93544 0.412781)
(0.872564 -2.9158 0.377074)
(1.37464 -1.66991 0.342572)
(1.74082 -0.960407 0.270245)
(1.9838 -0.574009 0.17488)
(2.20773 -0.325794 0.0473329)
(2.44607 -0.036633 -0.156388)
(2.33046 0.913462 -0.368917)
(3.73408 2.94611 -0.410837)
(0.364246 0.784228 -0.215673)
(0.321087 0.0156439 -0.0947342)
(0.644462 -0.189273 -0.0286408)
(0.975325 -0.238748 -0.00588464)
(1.20742 -0.245416 -0.00340024)
(1.31591 -0.239392 -0.0213625)
(1.25879 -0.177691 -0.0663826)
(0.788249 0.354087 -0.118732)
(0.794989 2.98015 -0.245438)
(0.0623751 -1.17913 -0.157423)
(0.273506 -1.30864 -0.168704)
(0.449314 -1.04909 -0.15928)
(0.636656 -0.778504 -0.130855)
(0.770716 -0.528591 -0.0938142)
(0.787728 -0.253811 -0.0570001)
(0.649491 0.151081 -0.0202586)
(0.203949 0.942042 0.0156286)
(0.058259 3.12353 -0.0311273)
(0.0909912 -0.93063 -0.107914)
(0.146455 -1.16126 -0.0992634)
(0.229107 -1.02655 -0.0942825)
(0.345553 -0.790466 -0.0913687)
(0.429783 -0.495022 -0.0749477)
(0.426282 -0.119106 -0.0472033)
(0.327351 0.426155 -0.00898776)
(0.00895032 1.36345 0.0343078)
(-0.0947784 3.17469 0.0422547)
(0.0676904 -1.10279 -0.0613699)
(0.137345 -1.2418 -0.0576029)
(0.182922 -1.08177 -0.0462197)
(0.227176 -0.834132 -0.0374434)
(0.24822 -0.486824 -0.0306733)
(0.218758 -0.0366242 -0.0219949)
(0.142529 0.580016 -0.00197943)
(-0.0761624 1.54209 0.0295353)
(-0.107689 3.00299 0.0477216)
(0.0486839 -1.15627 -0.0384054)
(0.0910514 -1.24546 -0.0336042)
(0.112414 -1.09222 -0.0228912)
(0.132872 -0.840567 -0.00984884)
(0.130621 -0.467205 0.00134183)
(0.0888667 0.0293773 0.00428242)
(0.0212613 0.685713 0.00950854)
(-0.138124 1.6388 0.0291092)
(-0.106648 2.76637 0.0460178)
(0.0276682 -1.20965 -0.0213624)
(0.0512656 -1.25235 -0.017519)
(0.0578226 -1.10055 -0.00911964)
(0.0613506 -0.839399 0.00262489)
(0.0472562 -0.444399 0.0161215)
(0.00381822 0.0849656 0.0215669)
(-0.0577478 0.76923 0.0206691)
(-0.175265 1.70054 0.0311424)
(-0.107543 2.54851 0.0449672)
(0.0128146 -1.2324 -0.0115042)
(0.021711 -1.24751 -0.00858967)
(0.0201997 -1.09615 -0.00231872)
(0.0135363 -0.825186 0.0068254)
(-0.00758582 -0.414484 0.0195221)
(-0.0503979 0.13505 0.0296498)
(-0.109854 0.836732 0.0296498)
(-0.194304 1.73786 0.0343366)
(-0.10633 2.37459 0.0434147)
(0.00646745 -1.24107 -0.00696184)
(0.00814891 -1.24308 -0.004577)
(0.00296859 -1.08823 0.000455885)
(-0.00918044 -0.807392 0.00761516)
(-0.034553 -0.38083 0.0173866)
(-0.0766377 0.186365 0.0278357)
(-0.128747 0.889009 0.0311902)
(-0.178465 1.71279 0.0339596)
(-0.0918874 2.1238 0.0372027)
(0.284895 -3.58656 0.519009)
(0.823484 -2.83184 0.522326)
(1.33346 -1.63616 0.468644)
(1.72315 -0.948584 0.3674)
(1.98812 -0.557173 0.234117)
(2.20504 -0.300094 0.0556438)
(2.44758 -0.0335769 -0.248053)
(2.23383 0.712793 -0.562529)
(3.79695 2.52243 -0.490797)
(0.172532 1.10171 -0.418956)
(0.135974 0.102684 -0.216326)
(0.511812 -0.0846094 -0.104828)
(0.890727 -0.155352 -0.0545074)
(1.16496 -0.182606 -0.0324866)
(1.30641 -0.199989 -0.041165)
(1.28976 -0.178008 -0.0901751)
(0.833857 0.222102 -0.12399)
(0.837508 2.67082 -0.169631)
(0.0929518 -0.917472 -0.125206)
(0.230603 -1.23144 -0.189601)
(0.376358 -1.05658 -0.219658)
(0.572068 -0.796953 -0.208438)
(0.73497 -0.549119 -0.158071)
(0.782541 -0.289025 -0.0970026)
(0.68175 0.0739907 -0.0310085)
(0.277767 0.759644 0.0605099)
(0.108243 2.78485 0.119814)
(0.106978 -0.788486 -0.127118)
(0.163634 -1.15178 -0.121855)
(0.234828 -1.09261 -0.111159)
(0.335312 -0.871773 -0.113049)
(0.421938 -0.568874 -0.100965)
(0.433063 -0.194682 -0.0706346)
(0.354976 0.316743 -0.0201401)
(0.0639632 1.1524 0.0607805)
(-0.0521848 2.82331 0.173323)
(0.0737806 -0.986658 -0.071746)
(0.144264 -1.24562 -0.0796266)
(0.189642 -1.14949 -0.0658861)
(0.232862 -0.926422 -0.0516428)
(0.257512 -0.58445 -0.0396739)
(0.236528 -0.135119 -0.0338039)
(0.170906 0.463552 -0.0154139)
(-0.0408362 1.35828 0.0324573)
(-0.0805507 2.69364 0.138823)
(0.0526524 -1.07115 -0.049506)
(0.0956252 -1.2634 -0.0498292)
(0.117599 -1.16246 -0.037894)
(0.137745 -0.933591 -0.0202251)
(0.141165 -0.566576 -0.00155951)
(0.108432 -0.074402 0.000371165)
(0.0483003 0.573998 -0.0019765)
(-0.112922 1.48644 0.0176618)
(-0.0897008 2.51023 0.105991)
(0.0298466 -1.13403 -0.0281564)
(0.0533182 -1.27047 -0.027419)
(0.0607192 -1.16786 -0.0180208)
(0.0658794 -0.929827 -0.00299344)
(0.05665 -0.543765 0.0159303)
(0.0212412 -0.0167653 0.0209854)
(-0.0356683 0.667014 0.0105284)
(-0.156789 1.57093 0.0125155)
(-0.0960969 2.32932 0.0831224)
(0.0140849 -1.16162 -0.0154059)
(0.0224285 -1.26556 -0.013606)
(0.0217658 -1.16125 -0.00667835)
(0.0169478 -0.913951 0.00423649)
(0.000597879 -0.50935 0.0193947)
(-0.037014 0.0421074 0.0315387)
(-0.0949525 0.746878 0.0218509)
(-0.182619 1.6252 0.0139944)
(-0.0990536 2.17717 0.0681009)
(0.00700373 -1.17269 -0.00949392)
(0.00826672 -1.26172 -0.00730545)
(0.00364659 -1.15312 -0.001736)
(-0.00650242 -0.896478 0.00617298)
(-0.0281523 -0.472313 0.0162766)
(-0.0701945 0.108241 0.0293213)
(-0.123419 0.818008 0.0267609)
(-0.174164 1.61646 0.0196339)
(-0.0882433 1.94373 0.0513707)
(0.0537769 -2.02987 0.441031)
(1.03452 -2.14538 0.596083)
(1.41513 -1.30764 0.554239)
(1.91618 -0.771713 0.450964)
(2.19652 -0.432415 0.313321)
(2.36372 -0.244038 0.151006)
(2.49367 -0.131785 -0.129178)
(1.69878 -0.0173582 -0.445353)
(3.22745 1.24378 -0.336478)
(-0.0738001 1.03996 -0.379047)
(-0.297139 0.309175 -0.107769)
(0.251593 0.493714 -0.167397)
(0.598104 0.314725 -0.126606)
(0.950703 0.185673 -0.0940665)
(1.15544 0.0327414 -0.0702037)
(1.17579 -0.140724 -0.0721518)
(0.666931 -0.188284 -0.0541379)
(0.351482 1.75496 -0.0451915)
(0.110993 -0.221255 -0.0416934)
(0.0975952 -0.699264 -0.0220685)
(0.254235 -0.808302 -0.107347)
(0.399891 -0.704686 -0.138014)
(0.564566 -0.543506 -0.138812)
(0.637021 -0.330737 -0.106339)
(0.584219 -0.0382593 -0.0399177)
(0.210023 0.50184 0.0822012)
(-0.22989 2.07161 0.19161)
(0.0952143 -0.348994 -0.094054)
(0.147999 -0.868146 -0.0835437)
(0.226632 -0.973636 -0.0798503)
(0.305207 -0.884663 -0.0732167)
(0.374229 -0.659886 -0.0772833)
(0.373933 -0.312968 -0.0776291)
(0.301354 0.184314 -0.0390458)
(-0.0075213 1.04009 0.0856348)
(-0.307721 2.16797 0.23669)
(0.0669194 -0.578707 -0.0472253)
(0.126618 -1.02535 -0.0489866)
(0.176654 -1.11444 -0.0450207)
(0.222318 -1.01124 -0.0292052)
(0.250611 -0.737846 -0.0217052)
(0.228453 -0.309406 -0.0318464)
(0.141746 0.325879 -0.0278243)
(-0.127507 1.35331 0.0703524)
(-0.286235 2.11846 0.20915)
(0.0504905 -0.718991 -0.03502)
(0.088758 -1.12034 -0.0355628)
(0.113784 -1.19243 -0.0267681)
(0.134535 -1.06415 -0.0122201)
(0.139318 -0.738597 0.0035287)
(0.109395 -0.248546 0.000238666)
(0.0142252 0.477626 -0.00924825)
(-0.203339 1.53899 0.0627823)
(-0.252164 2.01001 0.176402)
(0.029646 -0.817807 -0.0207784)
(0.048728 -1.17825 -0.0198308)
(0.0581756 -1.23618 -0.0126131)
(0.0633862 -1.08415 -0.00193148)
(0.055965 -0.708093 0.0135694)
(0.0183896 -0.16295 0.0169721)
(-0.0816588 0.632235 0.00590857)
(-0.245546 1.64664 0.058714)
(-0.21974 1.87757 0.147408)
(0.0133906 -0.867549 -0.0118302)
(0.0187243 -1.20128 -0.0106795)
(0.0181445 -1.2499 -0.00548763)
(0.0140774 -1.07573 0.00303485)
(0.00118259 -0.65761 0.0151698)
(-0.0467829 -0.0573587 0.026027)
(-0.150375 0.765217 0.0200223)
(-0.267101 1.70681 0.0591884)
(-0.190645 1.75336 0.126536)
(0.00605244 -0.888211 -0.00791506)
(0.00482099 -1.20888 -0.0064786)
(-0.000240708 -1.25005 -0.00208501)
(-0.00883534 -1.06084 0.00419884)
(-0.0262481 -0.608745 0.0140891)
(-0.095055 0.0906258 0.0286015)
(-0.186344 0.918214 0.0316383)
(-0.247118 1.71158 0.060501)
(-0.145799 1.56142 0.100689)
)
;

boundaryField
{
    inlet
    {
        type            fixedValue;
        value           uniform (10 0 0);
    }
    outlet
    {
        type            zeroGradient;
    }
    lowerWall
    {
        type            noSlip;
    }
    upperWall
    {
        type            noSlip;
    }
}


// ************************************************************************* //
