/*--------------------------------*- C++ -*----------------------------------*\
  =========                 |
  \\      /  F ield         | OpenFOAM: The Open Source CFD Toolbox
   \\    /   O peration     | Website:  https://openfoam.org
    \\  /    A nd           | Version:  11
     \\/     M anipulation  |
\*---------------------------------------------------------------------------*/
FoamFile
{
    format      ascii;
    class       volScalarField;
    location    "300";
    object      epsilon;
}
// * * * * * * * * * * * * * * * * * * * * * * * * * * * * * * * * * * * * * //

dimensions      [0 2 -3 0 0 0 0];

internalField   nonuniform List<scalar> 
729
(
31.8427
151.362
255.443
320.787
353.696
346.9
316.16
257.82
105.285
7.02499
14.0208
38.9971
62.9133
85.7817
100.086
101.227
90.0604
64.9344
0.162939
0.562326
1.14671
3.78152
10.2791
21.2504
32.8551
40.6416
36.9555
0.0217512
0.0494046
0.143884
0.292644
1.23218
4.91865
13.1445
22.095
22.5954
0.0206068
0.059485
0.137124
0.255231
0.637933
2.09349
6.73947
13.4138
14.3065
0.022864
0.0682298
0.17243
0.322685
0.596572
1.47716
4.38201
8.82909
9.42812
0.023034
0.0776308
0.177524
0.337956
0.610761
1.256
3.22577
5.93176
6.16859
0.0232548
0.0793352
0.187538
0.358882
0.61708
1.14112
2.68315
4.46653
4.46188
0.0233287
0.0804954
0.187275
0.359564
0.617373
1.03824
1.97314
2.82419
2.63994
118.158
426.085
570.829
663.74
713.252
711.631
660.051
560.79
451.754
9.06528
54.8925
106.561
152.342
186.055
202.761
201.569
199.027
257.754
0.192864
2.10753
10.2166
22.5662
38.3099
53.4406
66.2771
83.4767
122.874
0.0506138
0.136564
0.264633
2.32233
6.32763
14.6715
26.0858
41.6468
64.2717
0.0634418
0.0661331
0.153659
0.509144
1.63891
5.35637
12.6686
23.3727
36.2298
0.0666074
0.0856828
0.169528
0.398339
1.03806
2.99309
7.47403
14.3193
21.7887
0.0719987
0.0862413
0.191657
0.412713
0.910521
2.19509
5.05491
9.21534
13.3876
0.0728121
0.0878295
0.198558
0.434636
0.878912
1.82949
3.79029
6.46249
9.15536
0.0733538
0.0885127
0.202186
0.44075
0.868315
1.58471
2.74981
4.00319
5.20708
150.38
488.826
653.139
770.158
838.069
845.335
794.208
692.353
686.413
12.186
74.5058
144.303
204.401
247.773
269.687
271.043
277.115
390.235
0.321098
4.8442
18.9777
40.0492
62.3825
81.6988
98.0063
122.244
183.324
0.100116
0.179326
1.36205
5.24754
13.7731
25.6729
40.7388
61.8397
95.0409
0.112719
0.115662
0.282405
0.989325
3.59051
9.6874
19.8821
34.4101
52.8671
0.119376
0.118306
0.23853
0.597409
1.74138
4.95793
11.3642
20.6755
31.2761
0.124072
0.124856
0.254145
0.558207
1.31434
3.29935
7.34992
13.0508
18.9457
0.12514
0.125924
0.263897
0.561516
1.17494
2.54968
5.25751
8.93023
12.7413
0.125595
0.12685
0.268128
0.566985
1.12394
2.10117
3.69749
5.46193
7.16171
165.485
510.193
684.366
814.291
892.822
905.698
854.296
753.03
786.169
14.4953
82.7146
162.08
230.09
279.367
304.84
307.792
316.884
449.285
0.449632
6.66536
24.5537
50.4245
76.5735
98.7187
117.522
145.035
212.157
0.135713
0.320538
2.16618
7.99629
19.0142
33.2589
50.8159
74.8098
110.635
0.1431
0.151829
0.40193
1.53557
5.29645
13.0715
25.2514
41.8809
61.6307
0.15563
0.148133
0.302794
0.785691
2.39812
6.62377
14.4018
25.0903
36.3898
0.157573
0.153811
0.303161
0.6789
1.66662
4.23402
9.17715
15.7224
21.9786
0.161096
0.155362
0.31443
0.663722
1.41582
3.14122
6.42905
10.6453
14.7024
0.160743
0.156322
0.318594
0.663616
1.32032
2.50468
4.42557
6.44653
8.22589
170.812
515.064
692.538
826.621
908.575
923.254
871.847
770.881
813.877
15.4282
84.9653
167.287
237.834
289.054
315.729
319.2
328.988
465.549
0.49821
7.28471
26.4138
53.8251
81.2281
104.337
123.978
152.392
220.529
0.149883
0.348446
2.4719
9.0306
20.8798
35.9288
54.3288
79.1334
115.231
0.153529
0.169815
0.451207
1.77065
5.96602
14.3356
27.1998
44.4257
64.2546
0.168399
0.15668
0.326122
0.86482
2.668
7.27258
15.5329
26.6134
37.9397
0.16979
0.164751
0.322611
0.72667
1.80932
4.60253
9.86532
16.6476
22.9042
0.173438
0.166067
0.333139
0.702463
1.51052
3.37331
6.87207
11.2398
15.3005
0.173088
0.167049
0.337177
0.699814
1.39523
2.65989
4.6972
6.78382
8.54935
166.026
510.55
684.31
814.436
893.041
905.921
854.507
753.209
786.424
14.5095
82.4494
162.042
230.197
279.514
304.987
307.934
317.018
449.462
0.426026
6.6644
24.5706
50.465
76.6438
98.7999
117.607
145.124
212.264
0.127294
0.805528
2.13346
8.02662
19.0355
33.2978
50.8637
74.8653
110.701
0.142686
0.142786
0.395617
1.54312
5.30338
13.0899
25.2778
41.9151
61.671
0.155003
0.149453
0.302161
0.785693
2.4007
6.6318
14.4167
25.1115
36.4154
0.157102
0.153171
0.302439
0.678402
1.66734
4.2379
9.18594
15.7356
21.9948
0.160539
0.155071
0.313933
0.663119
1.4159
3.14335
6.43467
10.6543
14.7138
0.160228
0.155898
0.317967
0.663019
1.32025
2.50593
4.42895
6.45178
8.23253
149.41
492.29
653.27
770.563
838.522
845.758
794.618
692.601
687.037
11.9668
74.3543
144.313
204.666
248.075
269.97
271.318
277.337
390.634
0.328624
5.12456
18.9508
40.1312
62.5089
81.8465
98.1613
122.392
183.537
0.0973059
0.24995
1.22115
5.41338
13.7729
25.7339
40.8196
61.933
95.1641
0.111548
0.117513
0.275021
1.00741
3.59175
9.71523
19.9244
34.4669
52.9402
0.119453
0.118233
0.237272
0.596773
1.7435
4.96872
11.3872
20.7103
31.3212
0.121962
0.124035
0.252624
0.557124
1.31484
3.30449
7.36325
13.0725
18.974
0.124962
0.125274
0.263059
0.560235
1.17466
2.55253
5.26607
8.94489
12.7612
0.124674
0.126085
0.266896
0.565749
1.12357
2.10291
3.70277
5.47068
7.17343
112.117
438.209
571.556
664.43
713.836
712.154
660.694
560.611
453.209
7.54756
57.3735
107.025
152.865
186.503
203.148
201.971
199.209
258.49
0.229626
3.28094
10.0655
22.7106
38.4782
53.6147
66.4636
83.6271
123.202
0.0489149
0.183266
0.253707
2.32543
6.36029
14.7305
26.1717
41.7402
64.4321
0.0612986
0.0621232
0.150913
0.510098
1.64278
5.37568
12.7089
23.428
36.3149
0.0658217
0.0861276
0.168508
0.397083
1.03785
3
7.49416
14.3527
21.8385
0.0710886
0.0850857
0.185927
0.410852
0.909901
2.19823
5.06623
9.23616
13.4177
0.0719629
0.0871449
0.198799
0.432902
0.878055
1.83124
3.79761
6.47684
9.17643
0.0724788
0.0877029
0.200573
0.439023
0.867508
1.58589
2.75454
4.01202
5.21975
31.6929
145.34
256.475
322.089
354.874
347.623
318.465
255.05
106.996
3.99361
24.0667
38.7082
64.0143
86.2427
100.556
101.443
90.4663
65.522
0.233105
0.331554
1.26647
3.8209
10.4065
21.4053
32.9939
40.7774
37.1504
0.021327
0.0510182
0.142911
0.29592
1.23853
4.95804
13.2039
22.1576
22.6772
0.0199818
0.057195
0.13535
0.254908
0.637468
2.1025
6.76364
13.4461
14.349
0.0222485
0.0680699
0.160826
0.321132
0.595715
1.47771
4.39222
8.84891
9.45472
0.022427
0.0760303
0.180721
0.337881
0.608937
1.25528
3.23029
5.94494
6.18612
0.0226453
0.0780369
0.183363
0.356203
0.615715
1.14033
2.68594
4.47701
4.47544
0.0227031
0.0791426
0.185328
0.357458
0.615716
1.03745
1.97508
2.83084
2.64871
)
;

boundaryField
{
    inlet
    {
        type            fixedValue;
        value           uniform 14.855;
    }
    outlet
    {
        type            zeroGradient;
    }
    lowerWall
    {
        type            epsilonWallFunction;
        value           nonuniform List<scalar> 
162
(
31.8427
118.158
150.38
165.485
170.812
166.026
149.41
112.117
31.6929
7.02499
9.06528
12.186
14.4953
15.4282
14.5095
11.9668
7.54756
3.99361
0.162939
0.192864
0.321098
0.449632
0.49821
0.426026
0.328624
0.229626
0.233105
0.0217512
0.0506138
0.100116
0.135713
0.149883
0.127294
0.0973059
0.0489149
0.021327
0.0206068
0.0634418
0.112719
0.1431
0.153529
0.142686
0.111548
0.0612986
0.0199818
0.022864
0.0666074
0.119376
0.15563
0.168399
0.155003
0.119453
0.0658217
0.0222485
0.023034
0.0719987
0.124072
0.157573
0.16979
0.157102
0.121962
0.0710886
0.022427
0.0232548
0.0728121
0.12514
0.161096
0.173438
0.160539
0.124962
0.0719629
0.0226453
0.0233287
0.0733538
0.125595
0.160743
0.173088
0.160228
0.124674
0.0724788
0.0227031
105.285
451.754
686.413
786.169
813.877
786.424
687.037
453.209
106.996
64.9344
257.754
390.235
449.285
465.549
449.462
390.634
258.49
65.522
36.9555
122.874
183.324
212.157
220.529
212.264
183.537
123.202
37.1504
22.5954
64.2717
95.0409
110.635
115.231
110.701
95.1641
64.4321
22.6772
14.3065
36.2298
52.8671
61.6307
64.2546
61.671
52.9402
36.3149
14.349
9.42812
21.7887
31.2761
36.3898
37.9397
36.4154
31.3212
21.8385
9.45472
6.16859
13.3876
18.9457
21.9786
22.9042
21.9948
18.974
13.4177
6.18612
4.46188
9.15536
12.7413
14.7024
15.3005
14.7138
12.7612
9.17643
4.47544
2.63994
5.20708
7.16171
8.22589
8.54935
8.23253
7.17343
5.21975
2.64871
)
;
    }
    upperWall
    {
        type            epsilonWallFunction;
        value           nonuniform List<scalar> 
162
(
31.8427
31.6929
7.02499
3.99361
0.162939
0.233105
0.0217512
0.021327
0.0206068
0.0199818
0.022864
0.0222485
0.023034
0.022427
0.0232548
0.0226453
0.0233287
0.0227031
151.362
145.34
14.0208
24.0667
0.562326
0.331554
0.0494046
0.0510182
0.059485
0.057195
0.0682298
0.0680699
0.0776308
0.0760303
0.0793352
0.0780369
0.0804954
0.0791426
255.443
256.475
38.9971
38.7082
1.14671
1.26647
0.143884
0.142911
0.137124
0.13535
0.17243
0.160826
0.177524
0.180721
0.187538
0.183363
0.187275
0.185328
320.787
322.089
62.9133
64.0143
3.78152
3.8209
0.292644
0.29592
0.255231
0.254908
0.322685
0.321132
0.337956
0.337881
0.358882
0.356203
0.359564
0.357458
353.696
354.874
85.7817
86.2427
10.2791
10.4065
1.23218
1.23853
0.637933
0.637468
0.596572
0.595715
0.610761
0.608937
0.61708
0.615715
0.617373
0.615716
346.9
347.623
100.086
100.556
21.2504
21.4053
4.91865
4.95804
2.09349
2.1025
1.47716
1.47771
1.256
1.25528
1.14112
1.14033
1.03824
1.03745
316.16
318.465
101.227
101.443
32.8551
32.9939
13.1445
13.2039
6.73947
6.76364
4.38201
4.39222
3.22577
3.23029
2.68315
2.68594
1.97314
1.97508
257.82
255.05
90.0604
90.4663
40.6416
40.7774
22.095
22.1576
13.4138
13.4461
8.82909
8.84891
5.93176
5.94494
4.46653
4.47701
2.82419
2.83084
105.285
106.996
64.9344
65.522
36.9555
37.1504
22.5954
22.6772
14.3065
14.349
9.42812
9.45472
6.16859
6.18612
4.46188
4.47544
2.63994
2.64871
)
;
    }
}


// ************************************************************************* //
