/*--------------------------------*- C++ -*----------------------------------*\
  =========                 |
  \\      /  F ield         | OpenFOAM: The Open Source CFD Toolbox
   \\    /   O peration     | Website:  https://openfoam.org
    \\  /    A nd           | Version:  11
     \\/     M anipulation  |
\*---------------------------------------------------------------------------*/
FoamFile
{
    format      ascii;
    class       volScalarField;
    location    "300";
    object      k;
}
// * * * * * * * * * * * * * * * * * * * * * * * * * * * * * * * * * * * * * //

dimensions      [0 2 -2 0 0 0 0];

internalField   nonuniform List<scalar> 
729
(
2.50632
6.94139
10.0884
11.7156
12.4924
12.3194
11.6676
9.95519
5.66303
0.617502
2.06691
2.81569
3.96364
4.84743
5.38238
5.41409
5.02706
4.06824
0.087351
0.115086
0.289226
0.603238
1.1784
1.9156
2.5596
2.95239
2.78113
0.0193479
0.0369073
0.0633015
0.125014
0.275654
0.725441
1.39045
1.96595
1.99914
0.0189182
0.0368498
0.0669566
0.105322
0.180259
0.411539
0.890263
1.40927
1.47265
0.0197528
0.0428724
0.0753285
0.114433
0.176695
0.322913
0.668402
1.06634
1.11476
0.0203696
0.0444818
0.0801866
0.123493
0.180298
0.290811
0.545106
0.818025
0.839989
0.0203345
0.0465542
0.081156
0.125148
0.180994
0.272696
0.4821
0.677106
0.676785
0.0203834
0.0465484
0.0817231
0.126244
0.181037
0.256026
0.39275
0.498796
0.476996
5.77843
23.5315
31.8825
37.0073
39.8104
40.1363
37.7871
32.331
14.7387
0.945892
5.05063
9.29978
13.0136
15.704
17.1334
17.1125
15.9917
10.1324
0.0899143
0.425786
1.41261
3.09804
5.10376
6.91135
8.21353
8.77412
6.17999
0.0356999
0.082317
0.191685
0.556204
1.4932
2.93264
4.37858
5.33697
4.01018
0.0380139
0.0790885
0.15167
0.302301
0.687377
1.54929
2.65848
3.4935
2.73551
0.0418728
0.0949442
0.174042
0.29311
0.543174
1.06797
1.83565
2.42924
1.94855
0.0426846
0.0989771
0.185531
0.311393
0.509977
0.868481
1.39621
1.7559
1.40809
0.043764
0.103315
0.191877
0.320574
0.499643
0.767142
1.13813
1.35179
1.09286
0.0437514
0.103812
0.193745
0.324424
0.497279
0.706769
0.91823
0.970261
0.750234
7.01284
27.5832
37.6857
44.4193
48.3965
49.3834
47.1673
41.2882
19.4361
1.29981
6.70433
12.68
17.5675
21.0274
22.8922
23.0033
21.6717
13.3377
0.118041
0.775967
2.63014
5.30068
7.98137
10.1748
11.6515
12.1023
8.05982
0.0531725
0.126226
0.407803
1.23586
2.82028
4.67827
6.38259
7.34424
5.20106
0.0580697
0.116049
0.237886
0.504457
1.22175
2.47113
3.86182
4.76235
3.51762
0.0609562
0.134746
0.237199
0.421219
0.816469
1.59671
2.59829
3.25961
2.47883
0.061847
0.140275
0.251089
0.415017
0.7
1.21628
1.91081
2.32238
1.77459
0.0625852
0.145402
0.259187
0.420972
0.658047
1.02509
1.50723
1.75672
1.36213
0.0626164
0.146162
0.261094
0.424095
0.644119
0.918488
1.19271
1.25167
0.927755
7.53623
29.0934
39.9993
47.5342
52.1477
53.5095
51.2953
45.0121
21.2692
1.48889
7.49345
14.306
19.7992
23.689
25.8126
25.9783
24.402
14.647
0.146564
1.01471
3.39934
6.58487
9.61797
12.0322
13.5987
13.8755
8.88181
0.0657055
0.169235
0.59555
1.77298
3.69031
5.77938
7.61043
8.47295
5.75427
0.0686668
0.141941
0.296238
0.679003
1.63313
3.10282
4.6381
5.49931
3.89576
0.0713979
0.159746
0.28171
0.510778
1.02485
1.97252
3.10494
3.74782
2.74187
0.0734639
0.166801
0.292696
0.48425
0.831753
1.45774
2.25259
2.65406
1.95911
0.0736643
0.171565
0.299504
0.481768
0.758505
1.19598
1.74694
1.99245
1.49847
0.0738108
0.172661
0.301699
0.483468
0.732488
1.05038
1.36112
1.40982
1.01746
7.68619
29.4833
40.6399
48.4242
53.2374
54.7136
52.4948
46.0689
21.765
1.55048
7.72586
14.7935
20.4763
24.5042
26.7126
26.8902
25.2171
14.9977
0.157946
1.09578
3.65416
7.00387
10.1491
12.6347
14.2253
14.4195
9.11356
0.0699629
0.184988
0.669027
1.96808
3.99218
6.1544
8.02155
8.83044
5.9123
0.0722336
0.151356
0.318654
0.748634
1.78651
3.3278
4.90715
5.73592
4.00543
0.07497
0.168455
0.29795
0.544737
1.10428
2.10994
3.28333
3.90656
2.8191
0.0772588
0.175973
0.306751
0.508565
0.880735
1.54675
2.37321
2.76203
2.01369
0.0773933
0.180431
0.313159
0.503109
0.794487
1.25826
1.8312
2.06907
1.53882
0.0775433
0.181684
0.31543
0.503776
0.76322
1.09717
1.4189
1.46019
1.04394
7.53154
29.1141
40.0063
47.5462
52.1611
53.5222
51.3069
45.0225
21.2725
1.48436
7.47024
14.3082
19.8098
23.7011
25.8237
25.988
24.4107
14.6502
0.141647
0.97744
3.38978
6.59113
9.62659
12.0405
13.6061
13.8816
8.88447
0.0625419
0.138288
0.586688
1.77872
3.69511
5.78469
7.61559
8.47729
5.75633
0.0695962
0.1421
0.294783
0.680377
1.63516
3.10574
4.64148
5.50233
3.89733
0.0710765
0.159273
0.281188
0.510628
1.02543
1.97404
3.10712
3.74993
2.74307
0.0733576
0.166806
0.292591
0.483999
0.831869
1.45854
2.25401
2.65554
1.96002
0.0735069
0.17111
0.298955
0.481392
0.758419
1.19642
1.74792
1.99356
1.49921
0.0736536
0.17231
0.30126
0.483096
0.732353
1.05062
1.36176
1.41056
1.01798
7.06416
27.7229
37.7087
44.4459
48.4226
49.4068
47.1883
41.3104
19.4396
1.32817
6.66209
12.6931
17.5912
21.052
22.9137
23.0218
21.688
13.3423
0.116963
0.771788
2.63682
5.31413
7.99807
10.1904
11.6652
12.1139
8.06372
0.053563
0.12726
0.406499
1.24245
2.82738
4.68758
6.39169
7.35208
5.20439
0.0578263
0.115651
0.236564
0.506153
1.22368
2.47571
3.86743
4.7677
3.52027
0.0601923
0.134076
0.236701
0.420817
0.816999
1.59888
2.60178
3.2633
2.4809
0.061884
0.139966
0.250533
0.414395
0.69994
1.21736
1.91305
2.32497
1.77619
0.0621567
0.144645
0.258215
0.420204
0.657767
1.02566
1.50878
1.75868
1.36346
0.0623092
0.145514
0.26025
0.42336
0.6438
0.918809
1.19374
1.25298
0.928686
6.01286
23.9867
31.9366
37.0443
39.8406
40.1616
37.8088
32.3734
14.727
1.10248
4.9203
9.33286
13.0488
15.7395
17.1622
17.1381
16.0115
10.1301
0.0845534
0.436993
1.4173
3.11593
5.12365
6.93038
8.23066
8.78697
6.18133
0.0351371
0.0828278
0.186376
0.560392
1.49988
2.942
4.38869
5.34553
4.01254
0.0379213
0.077536
0.14956
0.30165
0.688087
1.55298
2.66409
3.49919
2.73791
0.0413945
0.094198
0.173599
0.292286
0.543151
1.06943
1.83883
2.43313
1.95067
0.0423388
0.0981431
0.183905
0.310362
0.509562
0.869147
1.39819
1.75864
1.40981
0.0434105
0.102761
0.190966
0.319614
0.499164
0.767464
1.13951
1.35389
1.09436
0.0434042
0.103181
0.192713
0.323491
0.496814
0.706937
0.919214
0.971713
0.751299
2.51131
7.155
10.1079
11.7336
12.5089
12.3423
11.6382
10.0508
5.62244
0.986644
1.47948
2.90058
3.97342
4.87565
5.3986
5.43134
5.03121
4.05595
0.085872
0.171034
0.279342
0.612996
1.18644
1.92447
2.56826
2.9579
2.77901
0.0195547
0.0351603
0.0617038
0.124049
0.277386
0.728365
1.395
1.96967
1.99995
0.0185543
0.0365752
0.0642875
0.104572
0.18017
0.412068
0.892574
1.41179
1.47414
0.0194083
0.0424814
0.076954
0.114632
0.176326
0.323089
0.669465
1.06817
1.11628
0.0199952
0.0440853
0.0779736
0.122824
0.17997
0.290643
0.545582
0.819379
0.841333
0.019983
0.04601
0.0813765
0.124686
0.180612
0.272499
0.482438
0.67823
0.678041
0.0200205
0.0460286
0.0811672
0.125753
0.180703
0.255867
0.393047
0.499652
0.477956
)
;

boundaryField
{
    inlet
    {
        type            fixedValue;
        value           uniform 0.375;
    }
    outlet
    {
        type            zeroGradient;
    }
    lowerWall
    {
        type            kqRWallFunction;
        value           nonuniform List<scalar> 
162
(
2.50632
5.77843
7.01284
7.53623
7.68619
7.53154
7.06416
6.01286
2.51131
0.617502
0.945892
1.29981
1.48889
1.55048
1.48436
1.32817
1.10248
0.986644
0.087351
0.0899143
0.118041
0.146564
0.157946
0.141647
0.116963
0.0845534
0.085872
0.0193479
0.0356999
0.0531725
0.0657055
0.0699629
0.0625419
0.053563
0.0351371
0.0195547
0.0189182
0.0380139
0.0580697
0.0686668
0.0722336
0.0695962
0.0578263
0.0379213
0.0185543
0.0197528
0.0418728
0.0609562
0.0713979
0.07497
0.0710765
0.0601923
0.0413945
0.0194083
0.0203696
0.0426846
0.061847
0.0734639
0.0772588
0.0733576
0.061884
0.0423388
0.0199952
0.0203345
0.043764
0.0625852
0.0736643
0.0773933
0.0735069
0.0621567
0.0434105
0.019983
0.0203834
0.0437514
0.0626164
0.0738108
0.0775433
0.0736536
0.0623092
0.0434042
0.0200205
5.66303
14.7387
19.4361
21.2692
21.765
21.2725
19.4396
14.727
5.62244
4.06824
10.1324
13.3377
14.647
14.9977
14.6502
13.3423
10.1301
4.05595
2.78113
6.17999
8.05982
8.88181
9.11356
8.88447
8.06372
6.18133
2.77901
1.99914
4.01018
5.20106
5.75427
5.9123
5.75633
5.20439
4.01254
1.99995
1.47265
2.73551
3.51762
3.89576
4.00543
3.89733
3.52027
2.73791
1.47414
1.11476
1.94855
2.47883
2.74187
2.8191
2.74307
2.4809
1.95067
1.11628
0.839989
1.40809
1.77459
1.95911
2.01369
1.96002
1.77619
1.40981
0.841333
0.676785
1.09286
1.36213
1.49847
1.53882
1.49921
1.36346
1.09436
0.678041
0.476996
0.750234
0.927755
1.01746
1.04394
1.01798
0.928686
0.751299
0.477956
)
;
    }
    upperWall
    {
        type            kqRWallFunction;
        value           nonuniform List<scalar> 
162
(
2.50632
2.51131
0.617502
0.986644
0.087351
0.085872
0.0193479
0.0195547
0.0189182
0.0185543
0.0197528
0.0194083
0.0203696
0.0199952
0.0203345
0.019983
0.0203834
0.0200205
6.94139
7.155
2.06691
1.47948
0.115086
0.171034
0.0369073
0.0351603
0.0368498
0.0365752
0.0428724
0.0424814
0.0444818
0.0440853
0.0465542
0.04601
0.0465484
0.0460286
10.0884
10.1079
2.81569
2.90058
0.289226
0.279342
0.0633015
0.0617038
0.0669566
0.0642875
0.0753285
0.076954
0.0801866
0.0779736
0.081156
0.0813765
0.0817231
0.0811672
11.7156
11.7336
3.96364
3.97342
0.603238
0.612996
0.125014
0.124049
0.105322
0.104572
0.114433
0.114632
0.123493
0.122824
0.125148
0.124686
0.126244
0.125753
12.4924
12.5089
4.84743
4.87565
1.1784
1.18644
0.275654
0.277386
0.180259
0.18017
0.176695
0.176326
0.180298
0.17997
0.180994
0.180612
0.181037
0.180703
12.3194
12.3423
5.38238
5.3986
1.9156
1.92447
0.725441
0.728365
0.411539
0.412068
0.322913
0.323089
0.290811
0.290643
0.272696
0.272499
0.256026
0.255867
11.6676
11.6382
5.41409
5.43134
2.5596
2.56826
1.39045
1.395
0.890263
0.892574
0.668402
0.669465
0.545106
0.545582
0.4821
0.482438
0.39275
0.393047
9.95519
10.0508
5.02706
5.03121
2.95239
2.9579
1.96595
1.96967
1.40927
1.41179
1.06634
1.06817
0.818025
0.819379
0.677106
0.67823
0.498796
0.499652
5.66303
5.62244
4.06824
4.05595
2.78113
2.77901
1.99914
1.99995
1.47265
1.47414
1.11476
1.11628
0.839989
0.841333
0.676785
0.678041
0.476996
0.477956
)
;
    }
}


// ************************************************************************* //
