/*--------------------------------*- C++ -*----------------------------------*\
  =========                 |
  \\      /  F ield         | OpenFOAM: The Open Source CFD Toolbox
   \\    /   O peration     | Website:  https://openfoam.org
    \\  /    A nd           | Version:  11
     \\/     M anipulation  |
\*---------------------------------------------------------------------------*/
FoamFile
{
    format      ascii;
    class       volScalarField;
    location    "300";
    object      nut;
}
// * * * * * * * * * * * * * * * * * * * * * * * * * * * * * * * * * * * * * //

dimensions      [0 2 -1 0 0 0 0];

internalField   nonuniform List<scalar> 
729
(
0.0177544
0.0286496
0.0358584
0.0385085
0.0397105
0.0393749
0.0387524
0.0345959
0.0274139
0.0048851
0.0274229
0.018297
0.0224744
0.0246531
0.0260507
0.0260612
0.0252544
0.0229393
0.00421457
0.00211981
0.00656543
0.00866071
0.0121582
0.0155412
0.0179467
0.0193028
0.0188367
0.00154891
0.00248141
0.00250644
0.0048064
0.00555006
0.00962943
0.0132376
0.0157432
0.0159188
0.00156312
0.0020545
0.0029425
0.00391152
0.00458419
0.00728104
0.0105841
0.0133253
0.013643
0.00153585
0.00242451
0.00296175
0.00365227
0.00471006
0.0063531
0.0091758
0.011591
0.0118625
0.00162121
0.0022939
0.00325978
0.00406133
0.00479019
0.00606002
0.00829033
0.010153
0.0102945
0.00160028
0.00245863
0.00316077
0.0039277
0.0047778
0.00586503
0.007796
0.00923817
0.00923903
0.0016029
0.0024226
0.0032096
0.00398921
0.00477781
0.00568215
0.00703585
0.00792858
0.0077567
0.0254331
0.116962
0.160266
0.185703
0.199983
0.203734
0.194694
0.167757
0.0432773
0.00888269
0.0418235
0.0730451
0.10005
0.119295
0.1303
0.13075
0.115643
0.0358478
0.00377267
0.00774196
0.0175784
0.0382789
0.0611944
0.0804446
0.0916093
0.0830011
0.0279743
0.00226624
0.00446565
0.0124961
0.0119891
0.0317128
0.0527578
0.0661462
0.061553
0.0225191
0.00204999
0.00851236
0.0134737
0.0161541
0.0259463
0.0403308
0.0502089
0.0469953
0.0185888
0.0023691
0.0094686
0.0160808
0.0194111
0.0255797
0.0342955
0.0405757
0.0370903
0.0156832
0.00227751
0.0102234
0.016164
0.0211452
0.0257071
0.0309251
0.0347082
0.0301112
0.013329
0.00236741
0.0109379
0.0166878
0.0212801
0.0255633
0.0289511
0.0307576
0.0254484
0.0117408
0.00234857
0.010958
0.0167091
0.021492
0.025631
0.0283691
0.0275958
0.0211648
0.00972843
0.0294334
0.14008
0.1957
0.230571
0.251531
0.259642
0.25211
0.221598
0.0495308
0.0124779
0.0542954
0.100278
0.135888
0.160605
0.174888
0.175704
0.152535
0.0410279
0.00390544
0.0111868
0.0328063
0.063141
0.0919042
0.114046
0.124667
0.107834
0.0318914
0.00254165
0.00799645
0.0109888
0.0261956
0.0519751
0.0767253
0.089997
0.0784997
0.0256163
0.00269242
0.0104793
0.0180346
0.0231501
0.0374152
0.056732
0.0675094
0.0593198
0.0210647
0.00280132
0.0138123
0.0212288
0.0267293
0.0344531
0.04628
0.0534661
0.0462507
0.0176817
0.00277464
0.0141837
0.0223262
0.0277702
0.0335529
0.0403537
0.0447088
0.0371939
0.0149598
0.00281701
0.0151103
0.0229104
0.0284045
0.0331698
0.0370916
0.0388885
0.0311019
0.0131059
0.00280962
0.0151573
0.0228819
0.0285495
0.0332226
0.0361351
0.0346262
0.0258152
0.0108166
0.0308881
0.149313
0.210406
0.249733
0.274124
0.284525
0.277198
0.242153
0.0517881
0.013764
0.0610976
0.113644
0.153335
0.180784
0.196714
0.197335
0.169119
0.0429752
0.00429972
0.0139029
0.0423561
0.0773918
0.108725
0.131988
0.141618
0.119472
0.0334648
0.00286302
0.00804158
0.0147362
0.0353802
0.0644598
0.0903851
0.10258
0.0863681
0.0269358
0.00296548
0.0119427
0.0196505
0.027022
0.0453211
0.0662871
0.0766722
0.0649896
0.022163
0.00294796
0.0155044
0.0235885
0.0298851
0.0394176
0.0528665
0.0602466
0.0503842
0.0185933
0.00308254
0.0162798
0.0254334
0.0310869
0.0373591
0.04517
0.049762
0.0403223
0.0157167
0.00303159
0.0170512
0.0256758
0.0314725
0.0365722
0.0409816
0.0427222
0.0335627
0.0137452
0.00305035
0.0171638
0.025713
0.0317002
0.0365733
0.0396445
0.0376764
0.0277489
0.0113265
0.0311277
0.151891
0.214637
0.255306
0.280747
0.291818
0.284469
0.247783
0.0523841
0.0140236
0.0632259
0.11774
0.158662
0.186958
0.203405
0.203878
0.173961
0.0434837
0.00450658
0.0148347
0.0454975
0.0820226
0.114128
0.1377
0.146901
0.122794
0.0338964
0.00293918
0.00883883
0.0162966
0.0386022
0.0686969
0.0948792
0.106593
0.0886844
0.0273016
0.00305865
0.0121413
0.0202538
0.0284872
0.048147
0.0695251
0.0796775
0.0666521
0.0224717
0.00300385
0.0163003
0.0244991
0.030881
0.0411351
0.0550929
0.0624626
0.0516098
0.0188525
0.00316393
0.0169163
0.0262504
0.0320331
0.038585
0.0467826
0.0513812
0.0412429
0.0159336
0.00310817
0.0176434
0.026494
0.0324298
0.0376089
0.0422403
0.0439166
0.0342794
0.0139287
0.00312654
0.017784
0.0265578
0.0326388
0.0375748
0.040731
0.0385754
0.0282869
0.0114725
0.0307492
0.149421
0.210497
0.249815
0.274198
0.28459
0.277254
0.242207
0.0517872
0.0136669
0.060915
0.113706
0.153427
0.180873
0.196788
0.197393
0.169167
0.042977
0.0042386
0.0129021
0.0420892
0.0774769
0.10882
0.132062
0.14167
0.119505
0.0334679
0.00276553
0.00213664
0.0145202
0.0354751
0.0645555
0.0904454
0.102622
0.0863925
0.0269391
0.00305515
0.0127276
0.0197684
0.0269986
0.0453742
0.066319
0.0767037
0.0650077
0.0221664
0.00293328
0.0152766
0.0235505
0.0298675
0.0394202
0.052884
0.0602689
0.0503983
0.0185965
0.00308285
0.0163489
0.0254759
0.0310773
0.0373533
0.0451781
0.0497774
0.0403334
0.0157197
0.00302913
0.0169927
0.0256221
0.031452
0.0365618
0.0409839
0.0427328
0.0335721
0.0137482
0.00304713
0.0171405
0.0256887
0.0316799
0.0365618
0.0396433
0.0376828
0.0277554
0.0113288
0.0300596
0.140508
0.1959
0.230726
0.251665
0.259759
0.252205
0.221757
0.0495034
0.0132669
0.0537227
0.100479
0.136078
0.160786
0.175032
0.175809
0.152642
0.0410141
0.00374664
0.0104612
0.0330199
0.0633323
0.0921024
0.114188
0.124764
0.107908
0.0318853
0.00265359
0.00583144
0.0121785
0.0256643
0.0522379
0.0768481
0.0900752
0.078549
0.0256158
0.00269793
0.0102437
0.0183136
0.0228876
0.0375211
0.0567792
0.0675618
0.0593552
0.0210672
0.00272977
0.0136838
0.0212518
0.0267067
0.0344558
0.0463052
0.0535019
0.0462774
0.0176857
0.00282601
0.0142149
0.0223614
0.0277409
0.0335345
0.0403625
0.0447327
0.0372151
0.0149645
0.00278253
0.0150311
0.0228115
0.0283656
0.0331493
0.0370918
0.0389053
0.0311199
0.013111
0.00280267
0.0151142
0.0228392
0.0285127
0.0332005
0.0361303
0.0346368
0.0258279
0.0108207
0.0290224
0.118169
0.160605
0.185881
0.200122
0.20384
0.194728
0.168251
0.0430699
0.0144937
0.0379764
0.0732464
0.100248
0.119546
0.13049
0.130882
0.115823
0.0357293
0.0028021
0.00523833
0.0179611
0.0384759
0.0614027
0.0806256
0.0917336
0.0830948
0.027912
0.00227161
0.0033691
0.0123223
0.0121541
0.0318329
0.0528826
0.0662341
0.0616126
0.0224895
0.00211134
0.00870953
0.0133397
0.0160545
0.0259387
0.0403778
0.0502609
0.0470374
0.0185778
0.00234293
0.00927221
0.0160958
0.0193632
0.0255829
0.0343102
0.0406071
0.0371227
0.0156815
0.00226944
0.0101884
0.0163715
0.0211006
0.0256828
0.0309282
0.034729
0.0301375
0.0133317
0.0023568
0.0109058
0.0165097
0.0212376
0.0255392
0.0289476
0.0307731
0.0254709
0.0117459
0.00233935
0.0109252
0.0166645
0.0214526
0.0256069
0.0283617
0.0276075
0.0211814
0.00973238
0.0179094
0.0317013
0.0358522
0.0384704
0.0396835
0.0394388
0.0382785
0.0356468
0.0265904
0.021938
0.00818548
0.0195617
0.0221971
0.0248076
0.0260853
0.0261718
0.0251826
0.0225965
0.00284704
0.00794062
0.00554521
0.00885099
0.0121739
0.0155719
0.0179924
0.0193104
0.0187093
0.00161367
0.00218083
0.00239773
0.00468006
0.00559118
0.00963009
0.0132644
0.0157582
0.0158742
0.00155059
0.00210503
0.00274812
0.00386093
0.00458301
0.00726851
0.0106011
0.0133409
0.01363
0.00152377
0.00238608
0.00331398
0.00368276
0.0046972
0.00635765
0.00918364
0.0116046
0.0118616
0.00160444
0.00230061
0.00302781
0.0040183
0.00478707
0.00605651
0.00829318
0.010164
0.0102982
0.00158704
0.00244145
0.00325034
0.00392805
0.00476819
0.00586059
0.00779884
0.00924716
0.00924525
0.00158893
0.00240928
0.00319935
0.00398159
0.00477301
0.00567944
0.0070396
0.00793712
0.00776218
)
;

boundaryField
{
    inlet
    {
        type            calculated;
        value           uniform 0.000851986;
    }
    outlet
    {
        type            calculated;
        value           nonuniform List<scalar> 
81
(
0.0016029
0.00234857
0.00280962
0.00305035
0.00312654
0.00304713
0.00280267
0.00233935
0.00158893
0.0024226
0.010958
0.0151573
0.0171638
0.017784
0.0171405
0.0151142
0.0109252
0.00240928
0.0032096
0.0167091
0.0228819
0.025713
0.0265578
0.0256887
0.0228392
0.0166645
0.00319935
0.00398921
0.021492
0.0285495
0.0317002
0.0326388
0.0316799
0.0285127
0.0214526
0.00398159
0.00477781
0.025631
0.0332226
0.0365733
0.0375748
0.0365618
0.0332005
0.0256069
0.00477301
0.00568215
0.0283691
0.0361351
0.0396445
0.040731
0.0396433
0.0361303
0.0283617
0.00567944
0.00703585
0.0275958
0.0346262
0.0376764
0.0385754
0.0376828
0.0346368
0.0276075
0.0070396
0.00792858
0.0211648
0.0258152
0.0277489
0.0282869
0.0277554
0.0258279
0.0211814
0.00793712
0.0077567
0.00972843
0.0108166
0.0113265
0.0114725
0.0113288
0.0108207
0.00973238
0.00776218
)
;
    }
    lowerWall
    {
        type            nutkWallFunction;
        Cmu             0.09;
        kappa           0.41;
        E               9.8;
        value           nonuniform List<scalar> 
162
(
0.00165801
0.00242719
0.00265165
0.00274033
0.00276512
0.00273955
0.0026605
0.00247168
0.00165951
0.000876186
0.0010638
0.00122939
0.00130782
0.00133218
0.001306
0.00124153
0.00114062
0.00108442
0.000359603
0.000364384
0.000412568
0.000455346
0.00047113
0.000448321
0.000410846
0.000354297
0.00035681
0.000179887
0.000238676
0.000286565
0.00031572
0.000324917
0.000308672
0.000287527
0.000236938
0.000180776
0.000178023
0.000245667
0.000298365
0.000322151
0.000329697
0.000324137
0.000297792
0.000245392
0.000176427
0.000181623
0.000256824
0.000305065
0.000327948
0.000335349
0.000327272
0.000303309
0.000255473
0.000180147
0.000184229
0.000259098
0.000307098
0.000332253
0.00033999
0.000332033
0.000307182
0.000258133
0.000182652
0.000184081
0.000262086
0.00030877
0.000332666
0.00034026
0.000332342
0.000307801
0.000261112
0.0001826
0.000184286
0.000262051
0.00030884
0.000332969
0.000340561
0.000332645
0.000308146
0.000261094
0.000182759
0.00240493
0.0037245
0.00422773
0.00440603
0.00445282
0.00440634
0.00422807
0.00372314
0.00239704
0.00206789
0.0031375
0.00355801
0.00371387
0.00375433
0.00371424
0.00355857
0.00313717
0.00206504
0.00173854
0.00250283
0.00282577
0.00295406
0.00298906
0.00295446
0.00282639
0.00250308
0.00173793
0.00149568
0.00205437
0.00231327
0.00242255
0.00245271
0.00242294
0.00231394
0.00205493
0.00149596
0.0013013
0.00172548
0.00193514
0.00202742
0.00205326
0.00202779
0.00193581
0.00172617
0.0013019
0.00114638
0.00147832
0.00164969
0.00172731
0.00174932
0.00172765
0.00165032
0.00147905
0.00114709
0.00100785
0.001275
0.00141666
0.00148196
0.00150063
0.00148227
0.00141724
0.00127571
0.00100858
0.000913498
0.00113608
0.00125589
0.00131164
0.00132761
0.00131194
0.00125645
0.00113678
0.000914269
0.000779097
0.000957338
0.00105447
0.0010997
0.00111264
0.00109996
0.00105495
0.000957956
0.000779809
)
;
    }
    upperWall
    {
        type            nutkWallFunction;
        Cmu             0.09;
        kappa           0.41;
        E               9.8;
        value           nonuniform List<scalar> 
162
(
0.00165801
0.00165951
0.000876186
0.00108442
0.000359603
0.00035681
0.000179887
0.000180776
0.000178023
0.000176427
0.000181623
0.000180147
0.000184229
0.000182652
0.000184081
0.0001826
0.000184286
0.000182759
0.00263927
0.00267608
0.00151857
0.00130404
0.000407825
0.000488528
0.000242354
0.00023701
0.00024218
0.000241349
0.000259621
0.000258531
0.00026405
0.000262967
0.000269624
0.000268174
0.000269609
0.000268223
0.00313126
0.00313402
0.00174836
0.00177219
0.000620506
0.000610766
0.000310382
0.000306772
0.000318456
0.000312585
0.000336081
0.000339376
0.000345818
0.000341424
0.000347722
0.000348153
0.000348829
0.000347743
0.00335299
0.00335533
0.00204346
0.00204576
0.00086692
0.000873271
0.000423507
0.000422013
0.000391661
0.000390387
0.000406768
0.000407092
0.000421151
0.000420108
0.000423715
0.000423
0.000425402
0.000424648
0.00345296
0.00345505
0.00224008
0.00224603
0.00117572
0.00117936
0.000607083
0.000608816
0.000500357
0.000500245
0.000495827
0.000495356
0.000500406
0.000499991
0.000501284
0.000500802
0.000501339
0.000500918
0.00343099
0.0034339
0.00234975
0.00235298
0.00146687
0.00146996
0.000942812
0.000944539
0.000728503
0.000728929
0.000652403
0.000652565
0.000622052
0.000621888
0.000604111
0.000603912
0.000587017
0.00058685
0.00334669
0.00334283
0.00235606
0.00235948
0.00167398
0.00167656
0.00126771
0.00126959
0.00103486
0.00103608
0.000908333
0.00090899
0.000827865
0.000828194
0.000782878
0.000783128
0.00071318
0.000713426
0.00311228
0.00312592
0.00227761
0.00227846
0.00178656
0.00178808
0.00148432
0.0014856
0.00127549
0.00127653
0.00112344
0.00112432
0.00099577
0.000996519
0.000913696
0.000914385
0.000795097
0.000795718
0.00240493
0.00239704
0.00206789
0.00206504
0.00173854
0.00173793
0.00149568
0.00149596
0.0013013
0.0013019
0.00114638
0.00114709
0.00100785
0.00100858
0.000913498
0.000914269
0.000779097
0.000779809
)
;
    }
}


// ************************************************************************* //
