/*--------------------------------*- C++ -*----------------------------------*\
  =========                 |
  \\      /  F ield         | OpenFOAM: The Open Source CFD Toolbox
   \\    /   O peration     | Website:  https://openfoam.org
    \\  /    A nd           | Version:  11
     \\/     M anipulation  |
\*---------------------------------------------------------------------------*/
FoamFile
{
    format      ascii;
    class       volScalarField;
    location    "300";
    object      p;
}
// * * * * * * * * * * * * * * * * * * * * * * * * * * * * * * * * * * * * * //

dimensions      [0 2 -2 0 0 0 0];

internalField   nonuniform List<scalar> 
729
(
2.92195
3.53701
3.11203
2.1156
1.13063
0.255507
-0.412729
-1.32293
2.3524
0.295469
0.207667
0.219444
0.0794759
-0.0983773
-0.189208
-0.0709165
0.184337
1.39052
0.185775
0.201841
0.225363
0.154061
0.0014472
-0.122477
-0.090359
0.0737498
0.423671
0.136714
0.137992
0.107662
0.0178794
-0.120308
-0.232224
-0.238781
-0.190335
-0.0402598
0.102367
0.0778017
0.0151309
-0.0819202
-0.197917
-0.281864
-0.294408
-0.257464
-0.149433
0.0584848
0.0217588
-0.0447487
-0.134032
-0.225866
-0.280983
-0.287429
-0.231985
-0.148363
0.0273373
-0.00652611
-0.0609127
-0.13055
-0.196126
-0.230295
-0.232741
-0.179463
-0.129217
0.00678527
-0.0132268
-0.044152
-0.0835839
-0.120104
-0.143058
-0.144915
-0.101972
-0.0783582
-0.00386035
-0.00708183
-0.0117317
-0.017915
-0.0241333
-0.0368239
-0.0342422
-0.0306119
-0.0508762
3.67716
4.80065
4.12381
2.60681
1.23538
-0.119311
-1.7706
-4.36481
2.27653
-0.0989584
-0.178979
-0.242511
-0.3072
-0.322971
-0.264466
0.0308087
0.484239
3.09388
0.181678
0.199527
0.202501
0.129703
0.0144912
-0.0713994
-0.00549322
0.195076
1.19116
0.109011
0.102832
0.0664581
-0.0234633
-0.145824
-0.238643
-0.256895
-0.34611
-0.0844464
0.0779436
0.0366713
-0.0301718
-0.120609
-0.2224
-0.296744
-0.324488
-0.435965
-0.317906
0.0322878
-0.0178666
-0.0824833
-0.161247
-0.23702
-0.287886
-0.306753
-0.374186
-0.257202
0.00747911
-0.0356157
-0.0859255
-0.145624
-0.199263
-0.232799
-0.246635
-0.292572
-0.206479
-0.00410861
-0.0286115
-0.0568566
-0.0905316
-0.121828
-0.143247
-0.152846
-0.184721
-0.133749
-0.00567552
-0.00951633
-0.0137299
-0.0194084
-0.0262055
-0.0349305
-0.039708
-0.0743006
-0.0878081
4.54419
6.21526
5.53778
3.59885
1.82012
-0.0307714
-2.763
-6.65872
1.61347
-0.195337
-0.312044
-0.550864
-0.645403
-0.566114
-0.370991
0.117349
0.934966
4.37425
0.143256
0.156124
0.126218
0.041877
-0.0575017
-0.10129
0.0834539
0.480401
1.94396
0.0475474
0.0450137
0.00603829
-0.0843549
-0.198729
-0.280356
-0.271318
-0.370781
-0.0152824
0.0382774
-0.00104727
-0.060298
-0.144996
-0.242991
-0.318839
-0.345529
-0.482907
-0.368556
0.00296437
-0.0452936
-0.100721
-0.169714
-0.237873
-0.289632
-0.310433
-0.388773
-0.257313
-0.0117616
-0.0530169
-0.0963704
-0.148406
-0.19419
-0.225626
-0.240259
-0.293834
-0.193657
-0.0143239
-0.0378897
-0.0621975
-0.091597
-0.116796
-0.132916
-0.140007
-0.177933
-0.124793
-0.00736908
-0.0109458
-0.0141225
-0.019119
-0.0241401
-0.0283563
-0.0321
-0.0705491
-0.0889478
5.02311
6.86109
6.21996
4.11252
2.13001
-0.00645708
-3.32348
-7.6773
1.1017
-0.200717
-0.415678
-0.727948
-0.815466
-0.68766
-0.430995
0.155239
1.22127
4.95854
0.103344
0.10944
0.0484886
-0.0492497
-0.137411
-0.140527
0.146922
0.713838
2.43164
0.00710523
0.00633327
-0.0399784
-0.135848
-0.246039
-0.311723
-0.262884
-0.329406
0.08753
0.00918043
-0.0290536
-0.0860095
-0.169166
-0.264756
-0.336466
-0.349973
-0.481239
-0.381012
-0.0177677
-0.0650199
-0.115643
-0.17856
-0.241851
-0.292075
-0.309824
-0.382312
-0.259337
-0.0251184
-0.0652558
-0.10454
-0.15097
-0.190836
-0.219673
-0.235226
-0.288141
-0.193254
-0.0213303
-0.0441813
-0.0660368
-0.0920169
-0.112485
-0.124403
-0.132391
-0.173712
-0.129564
-0.00870735
-0.0122873
-0.0148851
-0.019123
-0.0227596
-0.0241981
-0.0291113
-0.0724363
-0.0973827
5.15929
7.03724
6.41598
4.26193
2.21739
-0.00830958
-3.49892
-7.95512
0.923211
-0.197359
-0.45114
-0.781025
-0.863038
-0.7217
-0.44839
0.16676
1.30759
5.11288
0.0869653
0.0904869
0.0208812
-0.0792537
-0.162483
-0.151338
0.171159
0.795591
2.59614
-0.00635596
-0.00712865
-0.0560552
-0.15365
-0.261864
-0.320859
-0.256206
-0.30733
0.128419
-0.00125174
-0.0394563
-0.095601
-0.178158
-0.272806
-0.342242
-0.349786
-0.47672
-0.384788
-0.0251274
-0.071959
-0.121001
-0.181881
-0.243629
-0.292975
-0.308966
-0.377261
-0.260689
-0.029843
-0.0695123
-0.107397
-0.151809
-0.189666
-0.21747
-0.232873
-0.283253
-0.191988
-0.0237376
-0.046312
-0.0672956
-0.0919898
-0.110779
-0.121212
-0.129104
-0.169522
-0.129137
-0.00908952
-0.0126701
-0.0150444
-0.018997
-0.0221147
-0.0225501
-0.0275318
-0.0712956
-0.0982353
5.01802
6.85966
6.21906
4.11209
2.12959
-0.00707989
-3.32479
-7.67798
1.10351
-0.199926
-0.413153
-0.728943
-0.816977
-0.688341
-0.430957
0.156
1.22286
4.96163
0.100399
0.10598
0.0465949
-0.049249
-0.137148
-0.140168
0.147771
0.715189
2.43407
0.00761396
0.00622112
-0.0405294
-0.135413
-0.245439
-0.311167
-0.262214
-0.328751
0.0885179
0.00943995
-0.0297441
-0.0861105
-0.168834
-0.264315
-0.335979
-0.349444
-0.480759
-0.380582
-0.0177264
-0.0651276
-0.115619
-0.178239
-0.241453
-0.291666
-0.309415
-0.38191
-0.259018
-0.025017
-0.0651475
-0.104381
-0.150716
-0.19055
-0.21939
-0.234956
-0.287876
-0.193058
-0.0212503
-0.0440711
-0.0659166
-0.0918731
-0.112327
-0.124251
-0.132252
-0.17358
-0.129486
-0.00865652
-0.0122283
-0.0148284
-0.0190725
-0.0227186
-0.0241571
-0.0290739
-0.0724088
-0.0973893
4.53128
6.20888
5.53482
3.59735
1.819
-0.0319632
-2.76528
-6.66016
1.61816
-0.194162
-0.318826
-0.55849
-0.649938
-0.568409
-0.371665
0.118447
0.937879
4.38021
0.139378
0.151356
0.122991
0.0405594
-0.0578777
-0.100941
0.0847589
0.482546
1.94796
0.0453484
0.0436179
0.00526239
-0.0840531
-0.197904
-0.279351
-0.270196
-0.369805
-0.013552
0.0371896
-0.00161051
-0.0603942
-0.144409
-0.242098
-0.317865
-0.344584
-0.48215
-0.367706
0.00286271
-0.045222
-0.100445
-0.169075
-0.237088
-0.288838
-0.309688
-0.388141
-0.256733
-0.0115552
-0.0526746
-0.0960047
-0.147919
-0.193647
-0.225101
-0.239779
-0.293433
-0.193323
-0.0141436
-0.0376149
-0.061933
-0.0913095
-0.116496
-0.132642
-0.139772
-0.17775
-0.12466
-0.00726775
-0.0108134
-0.0140035
-0.0190145
-0.0240573
-0.0282822
-0.0320395
-0.0705189
-0.0889586
3.65201
4.79175
4.12289
2.60773
1.23671
-0.118758
-1.77191
-4.36474
2.28573
-0.0987195
-0.201588
-0.259398
-0.314888
-0.326527
-0.265791
0.0320463
0.487961
3.10173
0.17701
0.188904
0.196047
0.127311
0.0139527
-0.070923
-0.00392865
0.197607
1.19557
0.105764
0.0996101
0.064749
-0.0231142
-0.144516
-0.237094
-0.255433
-0.344866
-0.082447
0.0766175
0.0356146
-0.0304975
-0.119776
-0.22105
-0.295329
-0.32327
-0.435069
-0.316813
0.0323563
-0.0176608
-0.0821365
-0.160421
-0.235985
-0.286847
-0.305827
-0.373507
-0.256512
0.00782833
-0.0350068
-0.0853939
-0.144993
-0.198595
-0.232178
-0.246077
-0.2922
-0.206142
-0.00384027
-0.028151
-0.0564446
-0.0901442
-0.121462
-0.142954
-0.152614
-0.184611
-0.133652
-0.00551962
-0.00931243
-0.013538
-0.0192543
-0.026099
-0.034864
-0.0396641
-0.0743101
-0.0878591
2.85211
3.52267
3.12109
2.12484
1.14073
0.263751
-0.406573
-1.31596
2.36481
0.286187
0.186913
0.204363
0.076816
-0.0984734
-0.187969
-0.067421
0.189806
1.39843
0.186168
0.191191
0.216552
0.151352
0.00138304
-0.121181
-0.0879416
0.0768961
0.427373
0.134608
0.13489
0.105076
0.0179345
-0.119044
-0.230614
-0.237126
-0.188898
-0.0383589
0.10126
0.0769402
0.0145275
-0.0812903
-0.19661
-0.280481
-0.293171
-0.256595
-0.148121
0.058396
0.022315
-0.0442788
-0.133145
-0.224795
-0.279992
-0.286551
-0.231428
-0.147492
0.0276293
-0.00571905
-0.0602114
-0.129765
-0.195451
-0.229753
-0.232317
-0.179255
-0.128788
0.00705524
-0.0126619
-0.0436438
-0.0831102
-0.119796
-0.142864
-0.144855
-0.102009
-0.0782027
-0.00367204
-0.00683956
-0.0115352
-0.017767
-0.0240886
-0.036823
-0.0342955
-0.0306582
-0.0509028
)
;

boundaryField
{
    inlet
    {
        type            zeroGradient;
    }
    outlet
    {
        type            fixedValue;
        value           uniform 0;
    }
    lowerWall
    {
        type            zeroGradient;
    }
    upperWall
    {
        type            zeroGradient;
    }
}


// ************************************************************************* //
