/*--------------------------------*- C++ -*----------------------------------*\
  =========                 |
  \\      /  F ield         | OpenFOAM: The Open Source CFD Toolbox
   \\    /   O peration     | Website:  https://openfoam.org
    \\  /    A nd           | Version:  11
     \\/     M anipulation  |
\*---------------------------------------------------------------------------*/
FoamFile
{
    format      ascii;
    class       surfaceScalarField;
    location    "300";
    object      phi;
}
// * * * * * * * * * * * * * * * * * * * * * * * * * * * * * * * * * * * * * //

dimensions      [0 3 -1 0 0 0 0];

internalField   nonuniform List<scalar> 
1944
(
0.00825118
-0.00197936
-0.00636721
0.0119592
0.00255401
-0.00629048
0.0170224
0.0005538
-0.00564634
0.0204365
0.000788255
-0.00421243
0.0227703
0.000343337
-0.0026812
0.0240082
-0.000481722
-0.000756876
0.0232305
-0.00181821
0.00259776
0.0196576
-0.00307452
0.00664857
0.0157271
0.0039329
-0.00254606
-0.00361523
0.00413552
0.000803586
-0.0043086
0.00347047
0.00448001
-0.00517132
0.00202962
0.00799758
-0.00406101
0.00132267
0.0106191
-0.00310626
0.000824242
0.0115994
-0.00208243
0.000619856
0.00986432
-0.000828372
0.000745807
0.00339222
0.00270569
0.000694018
0.0195063
-0.000385346
-0.000640034
-0.00315626
0.000145201
0.00149893
-0.00766061
0.00119805
0.00322734
-0.00854011
0.00163171
0.00501883
-0.00759918
0.00174114
0.00617009
-0.00569726
0.00143726
0.00610288
-0.00295283
0.000936598
0.00400742
0.00100383
0.000263411
-0.000567335
0.00805688
-0.000775352
0.0210786
-0.00213884
0.000924842
-0.00507235
0.000984919
0.00170933
-0.0095699
0.0011215
0.00261867
-0.010434
0.00098271
0.00350488
-0.00945951
0.000972337
0.00387184
-0.00696834
0.000902624
0.00330275
-0.00311355
0.000728885
0.00147656
0.00250084
0.000328974
-0.00180108
0.0118456
-0.00051065
0.0212392
-0.00196134
0.000954682
-0.00664609
0.000618248
0.00149034
-0.0108205
0.000715016
0.00198958
-0.0115608
0.000627665
0.00243635
-0.0103773
0.000471039
0.00248521
-0.00736294
0.00034517
0.00179237
-0.00276968
0.000348448
4.02795e-05
0.00397471
0.000278019
-0.00223086
0.0143825
-0.000265653
0.0205524
-0.00154399
0.00073254
-0.00785597
0.000476335
0.00101244
-0.0116038
0.000503135
0.00125568
-0.0121994
0.00039582
0.00143153
-0.0107701
0.000217227
0.00130191
-0.00724936
1.6003e-05
0.00059391
-0.0020781
1.6131e-05
-0.00104224
0.00550896
0.000101833
-0.00237936
0.0159113
-0.00019158
0.0194286
-0.00125561
0.000431514
-0.00857754
0.000288306
0.000533812
-0.0119986
0.000292124
0.000625453
-0.0124951
0.000204101
0.000644543
-0.0108465
5.74609e-05
0.00040931
-0.00687795
-0.00013616
-0.000336275
-0.00115942
-0.000173167
-0.00174236
0.00695885
-4.37722e-05
-0.00237333
0.0167224
-0.000180043
0.0180782
-0.00102299
0.000183378
-0.00892188
0.000159608
0.000179263
-0.0121458
0.000150825
0.000168588
-0.012567
8.25472e-05
9.11626e-05
-0.0107469
-2.20464e-05
-0.000182318
-0.00643978
-0.000164648
-0.00100882
-5.60135e-05
-0.000276885
-0.00218029
0.00831178
-0.000181423
-0.00229725
0.0170687
-0.0002293
0.0166528
-0.00087188
5.35589e-05
8.96574e-05
1.72021e-05
7.22003e-05
-5.02469e-05
2.15506e-05
-0.000190305
-5.0584e-05
-0.000541213
-0.000146966
-0.00147587
-0.000293583
-0.00219579
-0.00027255
-0.00192054
-0.000321597
-0.00068845
0.00492057
-0.00658179
-0.00472704
0.0112513
-0.00807264
-0.00456441
0.0155145
-0.00566584
-0.00425161
0.0185054
-0.00386112
-0.00334739
0.0208841
-0.00290021
-0.00216203
0.0231191
-0.00239618
-0.000596031
0.0255624
-0.00188128
0.00203639
0.0253377
0.00214867
0.00472676
0.024463
0.00480974
0.000972656
-0.00600656
0.00259393
0.00350878
-0.00874271
0.00160092
0.00711614
-0.00798174
0.00073337
0.010322
-0.00611066
0.000362756
0.0124068
-0.00439263
0.00023017
0.0129645
-0.00268069
0.000346197
0.0111955
-0.000156818
0.000791127
0.00663216
0.00626628
0.00114122
0.0287162
0.00199485
0.000869075
-0.00787229
0.00115973
0.00293039
-0.0113572
0.0017533
0.00478444
-0.0101881
0.00198221
0.00660353
-0.00794068
0.00175012
0.00764885
-0.00531162
0.0013097
0.00732097
-0.00222597
0.000809333
0.00505904
0.00211253
0.000256242
0.00114879
0.00985744
-0.000455473
0.0282779
-0.000551318
0.00117276
-0.00921317
0.00116124
0.0018996
-0.0120693
0.00111018
0.0028593
-0.0112161
0.00105183
0.00383908
-0.00899147
0.001043
0.00430413
-0.00577605
0.000901456
0.0038625
-0.00167057
0.000614765
0.00230035
0.00384832
0.000155276
-0.000246533
0.0124044
-0.0005106
0.0271936
-0.00112345
0.00111122
-0.0103888
0.000686692
0.00165855
-0.0125835
0.000684068
0.00211409
-0.0115848
0.000542295
0.00248424
-0.00931364
0.000423613
0.00248266
-0.00576894
0.00033963
0.00194473
-0.00106673
0.000282296
0.000832472
0.00515044
8.79701e-05
-0.000802804
0.0141342
-0.000360324
0.0258289
-0.000982263
0.000799997
-0.0111609
0.000449579
0.00106073
-0.0127461
0.000406245
0.00128715
-0.011696
0.000281576
0.00141328
-0.00934693
0.00012495
0.00125274
-0.00557244
-1.97799e-05
0.00071177
-0.000473901
-3.58299e-05
-0.000172291
0.00618668
-5.05313e-05
-0.00120167
0.0152745
-0.000302665
0.0242026
-0.000831186
0.000472435
-0.0115958
0.000250628
0.000560095
-0.0127534
0.000211931
0.00064186
-0.0116919
0.00011862
0.000623346
-0.00925518
-1.53833e-05
0.000387936
-0.00529638
-0.000176624
-0.000125223
9.76807e-05
-0.000231618
-0.000849317
0.0070446
-0.000177746
-0.00141241
0.0159474
-0.000290027
0.0224792
-0.000712101
0.0002134
-0.0117842
0.000134362
0.000213103
-0.0127061
0.000103834
0.000195175
-0.0116258
3.46917e-05
9.0525e-05
-0.00910691
-6.54265e-05
-0.000182604
-0.00498006
-0.000207717
-0.000696755
0.000660773
-0.000325853
-0.00131224
0.00776128
-0.000282692
-0.00150586
0.0162194
-0.000307803
0.0207186
-0.000617331
7.6445e-05
8.44712e-05
5.47662e-05
5.94592e-05
-1.81083e-05
4.09016e-06
-0.000177851
-7.29073e-05
-0.000487689
-0.000176486
-0.00100592
-0.000299292
-0.00144241
-0.000309766
-0.00131794
-0.000312219
-0.000481129
0.00448708
-0.00653432
-0.00264294
0.0116913
-0.00918795
-0.00257741
0.0158666
-0.00600539
-0.00242372
0.0185815
-0.00410911
-0.00195544
0.0208306
-0.00314258
-0.0012698
0.0232213
-0.00266513
-0.000322085
0.0261703
-0.00207506
0.00116306
0.0250369
0.0032448
0.00261682
0.0266603
0.00318751
0.0032313
-0.00848177
0.00133334
0.00495508
-0.0100842
0.000777601
0.00811261
-0.00867369
0.000243871
0.0109102
-0.00657671
3.1681e-05
0.012654
-0.00467194
1.49629e-05
0.0128838
-0.00271663
0.000167609
0.0107507
0.000324588
0.000525003
0.00608041
0.00811682
0.000940442
0.0326092
0.00212692
0.00141538
-0.00981685
0.00109203
0.00356858
-0.0118086
0.00132932
0.00545484
-0.00983331
0.00125683
0.00707296
-0.00745683
0.00101194
0.00784748
-0.00485869
0.000721505
0.0071847
-0.00168301
0.000438317
0.00453426
0.00307051
0.000160928
0.000374584
0.0119112
-8.97065e-05
0.032029
0.000403696
0.00108794
-0.0104763
0.000741812
0.00183013
-0.0121638
0.000727485
0.00289459
-0.010585
0.000741124
0.00391227
-0.00815154
0.00072054
0.00430652
-0.00493288
0.000581315
0.00369086
-0.00080767
0.000354967
0.00189664
0.00496702
5.29605e-05
-0.000763142
0.0143275
-0.000267119
0.0303651
-0.000222626
0.00105761
-0.0113116
0.000469278
0.00158675
-0.0124505
0.000444543
0.00205542
-0.0108757
0.000366087
0.00240378
-0.00837936
0.000303837
0.00234978
-0.00478422
0.000245137
0.00172391
-6.13315e-05
0.00016177
0.000500698
0.00628398
-5.89978e-06
-0.00108888
0.0157967
-0.000240071
0.0285658
-0.000272007
0.000761974
-0.0119146
0.000292615
0.0010062
-0.0125435
0.000256399
0.00123544
-0.010999
0.000176527
0.00132859
-0.00842215
7.51836e-05
0.00110697
-0.00457039
-1.17589e-05
0.000493348
0.00055922
-4.2774e-05
-0.000442293
0.00726142
-9.24639e-05
-0.00140438
0.0166922
-0.000236334
0.0265916
-0.00026146
0.000452206
-0.0122792
0.000163615
0.000534706
-0.0125464
0.000132793
0.000605241
-0.0110178
6.74301e-05
0.000547672
-0.00835218
-2.73945e-05
0.000255763
-0.0043199
-0.000135025
-0.000310185
0.00107511
-0.000181563
-0.00105271
0.0080031
-0.000177017
-0.00156247
0.0171593
-0.000247516
0.0245759
-0.000259032
0.00020513
-0.0124369
8.67535e-05
0.00020146
-0.0125022
6.33468e-05
0.000173127
-0.0109676
1.29873e-05
3.11646e-05
-0.00821357
-6.19242e-05
-0.000292154
-0.00404025
-0.000163986
-0.000831754
0.00153325
-0.000244415
-0.00144384
0.00857512
-0.000242718
-0.00159456
0.0172669
-0.000264812
0.0226146
-0.000250679
7.39197e-05
5.73176e-05
5.13012e-05
3.63064e-05
-3.24399e-05
-5.52717e-06
-0.000220009
-6.49409e-05
-0.000557973
-0.000144052
-0.00105667
-0.00022551
-0.00149295
-0.000248545
-0.00135081
-0.000252148
-0.000215276
0.00445885
-0.00631043
-0.000791018
0.0120064
-0.00931737
-0.000806473
0.0161915
-0.00584483
-0.000764015
0.0188185
-0.00396114
-0.00062199
0.0210252
-0.00307579
-0.000401483
0.0234825
-0.00268982
-8.99279e-05
0.0263912
-0.00212957
0.000383981
0.0246232
0.00354491
0.000840477
0.0267322
0.0010791
0.00408541
-0.00946704
0.000415166
0.00558918
-0.0102975
0.00025609
0.00858599
-0.00867209
7.46871e-05
0.0111969
-0.00654021
-4.69213e-07
0.0127529
-0.00461535
-1.94295e-06
0.0127699
-0.00259709
5.76277e-05
0.0103378
0.00064088
0.000186747
0.00547087
0.00899572
0.000356917
0.0334842
0.000846062
0.00163897
-0.0104247
0.000423522
0.00397806
-0.0117946
0.000491037
0.0058392
-0.00970298
0.000427724
0.00728907
-0.00730574
0.000327778
0.00783882
-0.00467235
0.000228606
0.00690341
-0.00136272
0.000139204
0.00393351
0.00371286
5.88936e-05
-0.00044669
0.0132741
1.23245e-05
0.0331719
0.000269413
0.00104954
-0.0109558
0.000230212
0.00187332
-0.0121455
0.000257941
0.00298363
-0.0103378
0.000267117
0.00395221
-0.00780353
0.000250198
0.00420585
-0.00453949
0.000194857
0.00337858
-0.000293674
0.000113126
0.00132633
0.00580503
1.30428e-05
-0.00148084
0.0158865
-7.22877e-05
0.0314428
2.56553e-05
0.00102615
-0.0116678
0.000158072
0.00154281
-0.012367
0.000151156
0.00199714
-0.0105536
0.000128578
0.00230073
-0.00791071
0.000107922
0.00216351
-0.00424171
8.47261e-05
0.0013977
0.000585091
4.87916e-05
-6.72609e-06
0.00721516
-1.16409e-05
-0.00162894
0.017345
-7.6401e-05
0.0295589
-1.71112e-05
0.000734291
-0.012207
9.87392e-05
0.000961841
-0.0124243
8.68962e-05
0.00116878
-0.0106426
5.91352e-05
0.00121165
-0.00790111
2.30726e-05
0.0009096
-0.00394412
-7.155e-06
0.000185736
0.00128792
-2.17262e-05
-0.000879118
0.00823051
-4.30001e-05
-0.00183022
0.0181427
-8.3035e-05
0.0274977
-3.05289e-05
0.000432782
-0.012533
5.67354e-05
0.000500944
-0.0124046
4.49818e-05
0.000547916
-0.0106427
2.07279e-05
0.000444729
-0.00781046
-1.46643e-05
8.35444e-05
-0.00366451
-5.33353e-05
-0.000571615
0.00183295
-7.14113e-05
-0.001409
0.00896439
-7.35528e-05
-0.00190405
0.0184818
-9.16802e-05
0.0253782
-4.36395e-05
0.000192943
-0.0126696
3.02486e-05
0.00017907
-0.0123484
2.09992e-05
0.000130958
-0.0105831
1.62844e-06
-5.01533e-05
-0.00766402
-2.71515e-05
-0.000433618
-0.00338022
-6.47441e-05
-0.00103871
0.00228725
-9.36091e-05
-0.00171803
0.00949727
-9.63016e-05
-0.00185693
0.0184549
-9.90003e-05
0.0233205
-4.99254e-05
6.70935e-05
2.30355e-05
3.61647e-05
1.33546e-05
-6.36802e-05
-3.63941e-06
-0.000281305
-2.70816e-05
-0.000664165
-5.72541e-05
-0.0011991
-8.6829e-05
-0.00167891
-9.6358e-05
-0.0015397
-9.16336e-05
-4.50096e-05
0.00445366
-0.00620721
0.000996254
0.0121202
-0.0093609
0.000887688
0.0163129
-0.0057884
0.000830765
0.018918
-0.00389998
0.000672474
0.0211138
-0.00304008
0.000442649
0.0235836
-0.00268492
0.000125124
0.0264527
-0.0021322
-0.00035291
0.0244766
0.00363244
-0.000815571
0.026625
-0.00106912
0.00432917
-0.00975277
-0.000365069
0.00577214
-0.0103551
-0.000192017
0.00873013
-0.00865886
-1.37305e-05
0.0112881
-0.00650474
4.59271e-05
0.0127846
-0.00457544
3.68048e-05
0.0127291
-0.00254233
-2.95425e-05
0.0101959
0.000751426
-0.00016367
0.0052583
0.00926567
-0.00033856
0.0335634
-0.000833919
0.00172881
-0.0105845
-0.000470948
0.00412231
-0.0118037
-0.000453323
0.00596112
-0.00968402
-0.000386631
0.00735063
-0.00726504
-0.000301744
0.00782121
-0.00460805
-0.000209424
0.00678838
-0.00124685
-0.000123474
0.00370505
0.00393938
-4.56962e-05
-0.000751132
0.013736
-1.69473e-06
0.0333437
-0.000262019
0.00104865
-0.0110938
-0.000304887
0.00190044
-0.0121391
-0.000258251
0.00301798
-0.0102728
-0.000261983
0.0039584
-0.00770299
-0.000252312
0.0041542
-0.00441306
-0.000195954
0.00324393
-0.000112002
-0.000111436
0.00109294
0.00611227
-8.83839e-06
-0.00176057
0.0164394
7.78185e-05
0.0316297
-2.08648e-05
0.00101775
-0.0117679
-0.000184109
0.0015259
-0.0123329
-0.000163173
0.00197105
-0.0104525
-0.000137043
0.00225487
-0.00775921
-0.000119655
0.00208107
-0.00405866
-9.58569e-05
0.00125586
0.000818166
-5.61524e-05
-0.000221159
0.00756839
9.26198e-06
-0.00184843
0.0179122
7.79954e-05
0.0297439
2.01691e-05
0.000722781
-0.0122864
-0.000105659
0.000943853
-0.0123763
-9.08723e-05
0.00113879
-0.0105229
-6.54104e-05
0.00115966
-0.00772315
-3.38429e-05
0.000822741
-0.00372312
-5.73426e-06
5.0937e-05
0.00155761
1.06517e-05
-0.00106888
0.0086084
3.67984e-05
-0.00200903
0.0186876
8.16881e-05
0.0276722
3.21141e-05
0.000424459
-0.0125978
-5.66888e-05
0.000486156
-0.0123469
-4.63683e-05
0.000522337
-0.010513
-2.54566e-05
0.000399306
-0.00762094
6.15927e-06
6.9961e-06
-0.00342616
4.20452e-05
-0.000689552
0.00212255
6.02009e-05
-0.00157119
0.00935065
6.58268e-05
-0.00205366
0.0189899
8.85043e-05
0.0255308
4.40799e-05
0.000187563
-0.012727
-2.85364e-05
0.000169053
-0.0122859
-2.17559e-05
0.000111886
-0.0104487
-5.66151e-06
-8.65298e-05
-0.00746984
2.01394e-05
-0.000497299
-0.00313568
5.55295e-05
-0.0011368
0.0025845
8.39405e-05
-0.00185144
0.00988036
8.86081e-05
-0.00197914
0.0189236
9.4982e-05
0.0234521
4.96487e-05
6.31818e-05
-1.2886e-05
2.84551e-05
-9.25367e-06
-7.88202e-05
3.11395e-06
-0.000310024
2.3041e-05
-0.000714303
5.08232e-05
-0.00127342
7.912e-05
-0.00177935
8.95984e-05
-0.00163589
8.74795e-05
4.42821e-05
0.00439663
-0.00639592
0.00303774
0.0120001
-0.00940977
0.00270705
0.0161893
-0.00585996
0.00249906
0.018818
-0.00396207
0.00200439
0.0210252
-0.00307313
0.00130745
0.0234829
-0.00268702
0.000353949
0.026391
-0.0021267
-0.00113457
0.0246215
0.00354929
-0.00259539
0.0267363
-0.00318418
0.0041448
-0.00949275
-0.00141466
0.00559816
-0.0103572
-0.000700843
0.00858358
-0.00869357
-0.000166598
0.011193
-0.00654238
1.61429e-05
0.0127504
-0.00461245
1.86104e-05
0.012768
-0.002593
-0.000141212
0.0103353
0.000645976
-0.000503718
0.00546817
0.00900312
-0.000925232
0.0334917
-0.00212121
0.00167681
-0.0103504
-0.00130139
0.00400131
-0.0117911
-0.00135216
0.00584513
-0.00970472
-0.00122095
0.00728754
-0.0073017
-0.000985029
0.00783574
-0.00466822
-0.000701852
0.00690028
-0.00135778
-0.000423225
0.00393018
0.00371904
-0.000148661
-0.000450103
0.0132832
9.8567e-05
0.0331801
-0.000400503
0.00104872
-0.0108864
-0.000819681
0.00188408
-0.0121211
-0.000767842
0.00299243
-0.0103266
-0.000751267
0.00395343
-0.00779287
-0.000723136
0.00420415
-0.00453223
-0.000582904
0.0033762
-0.000287327
-0.000354003
0.00132341
0.00581223
-4.92535e-05
-0.00148399
0.0158967
0.000271709
0.0314507
0.000224457
0.00103681
-0.0116268
-0.000482878
0.00154952
-0.012344
-0.000455416
0.00199944
-0.0105408
-0.000374193
0.00230083
-0.00789978
-0.000314935
0.00216256
-0.00423375
-0.000256323
0.00139609
0.00059233
-0.000169436
-9.06001e-06
0.00722325
3.37576e-06
-0.00163135
0.0173558
0.000241177
0.0295668
0.000272772
0.000735549
-0.012173
-0.000296653
0.000964766
-0.0124034
-0.000261885
0.00117008
-0.0106291
-0.000183311
0.0012125
-0.00789132
-8.51239e-05
0.000909473
-0.00393637
-2.67016e-07
0.000184768
0.0012955
3.21382e-05
-0.000880861
0.00823915
8.65186e-05
-0.00183198
0.0181537
0.000234879
0.0275056
0.000261326
0.000434799
-0.0125029
-0.000163159
0.000503295
-0.0123844
-0.000134753
0.000549607
-0.0106294
-7.20198e-05
0.000446022
-0.00780153
1.9678e-05
8.40249e-05
-0.00365728
0.000124828
-0.000572037
0.00184049
0.000171243
-0.0014102
0.00897325
0.000169892
-0.00190532
0.0184928
0.000244513
0.0253861
0.0002582
0.000194548
-0.0126418
-8.51702e-05
0.000181181
-0.0123292
-6.42486e-05
0.000132896
-0.0105702
-1.69397e-05
-4.85758e-05
-0.0076555
5.54181e-05
-0.000432715
-0.00337332
0.000155659
-0.00103879
0.0022948
0.000235703
-0.00171887
0.00950613
0.000235817
-0.0018579
0.0184657
0.000261128
0.0233284
0.000249452
6.80479e-05
-4.77487e-05
3.75378e-05
-3.25179e-05
-6.23249e-05
4.98275e-06
-0.000280184
6.11753e-05
-0.000663411
0.00013819
-0.00119913
0.000218559
-0.00167955
0.000242531
-0.00154046
0.000248332
0.000213899
0.00422403
-0.00628566
0.00512826
0.0116536
-0.00949287
0.00479607
0.0158614
-0.00601726
0.00432347
0.0185842
-0.00410466
0.00338442
0.0208342
-0.00313334
0.00218926
0.0232257
-0.00265803
0.000618809
0.0261714
-0.00206797
-0.00201341
0.0250365
0.00325386
-0.00471527
0.0266687
-0.00481733
0.00358917
-0.00820533
-0.00304823
0.00492177
-0.0101703
-0.00134776
0.00808368
-0.00871991
-0.00062136
0.0108939
-0.0065842
-0.000310266
0.0126475
-0.00466591
-0.000201403
0.0128804
-0.00270809
-0.00032389
0.0107472
0.000335174
-0.00077388
0.0060775
0.00813039
-0.00113234
0.0326238
-0.00199945
0.00166095
-0.00964189
-0.0015755
0.00362497
-0.0117015
-0.00180034
0.00544568
-0.00983586
-0.00192406
0.00705846
-0.00745331
-0.00172523
0.00783796
-0.00485291
-0.00129228
0.0071782
-0.00167391
-0.000796744
0.00452914
0.00308215
-0.000246245
0.000370261
0.0119269
0.000460948
0.0320453
0.000548193
0.00114138
-0.0103674
-0.00127283
0.00187626
-0.0120756
-0.00114076
0.00290453
-0.0105572
-0.00106046
0.00390974
-0.0081337
-0.00104776
0.00430175
-0.00492159
-0.000905567
0.00368668
-0.000796388
-0.000616023
0.00189255
0.00497998
-0.00015274
-0.000767305
0.0143451
0.000513414
0.0303809
0.00112145
0.00106082
-0.0112168
-0.000698943
0.00160203
-0.0123905
-0.000685322
0.00206213
-0.0108467
-0.000547387
0.00240491
-0.00835972
-0.000432696
0.00234857
-0.00477128
-0.000350562
0.00172188
-4.87033e-05
-0.000290322
0.000497795
0.00629813
-9.05924e-05
-0.00109196
0.0158153
0.000360783
0.0285813
0.00098042
0.000766342
-0.0118288
-0.000452201
0.00101335
-0.012494
-0.000406708
0.00123924
-0.0109712
-0.000285701
0.00133135
-0.00840499
-0.000132611
0.00110792
-0.00455793
9.6272e-06
0.000492798
0.000572013
2.65493e-05
-0.000444062
0.00727618
4.53715e-05
-0.00140634
0.0167111
0.000301376
0.0266071
0.000829151
0.00045656
-0.0121994
-0.000250014
0.000540515
-0.0125
-0.00021351
0.000609538
-0.010991
-0.000121896
0.000551128
-0.00833661
9.34445e-06
0.000257806
-0.00430851
0.000168596
-0.000309703
0.00108739
0.00022337
-0.00105352
0.00801788
0.000172035
-0.00156366
0.017178
0.000287701
0.0245916
0.000710004
0.000208304
-0.0123613
-0.000132452
0.000206354
-0.0124583
-0.000104585
0.000177721
-0.0109413
-3.83635e-05
3.50258e-05
-0.00819867
5.99703e-05
-0.000289434
-0.00402955
0.000201086
-0.000830747
0.00154535
0.000319073
-0.00144412
0.00858962
0.000277469
-0.00159534
0.0172853
0.000305071
0.0226305
0.00061528
7.65655e-05
-7.66943e-05
5.46254e-05
-5.61815e-05
-2.91888e-05
-4.60172e-06
-0.000217229
6.97022e-05
-0.000555667
0.000171649
-0.00105576
0.000293704
-0.00149312
0.000305238
-0.0013514
0.000309277
0.000479359
0.00382194
-0.00457334
0.00614522
0.0111925
-0.00898215
0.0064901
0.0155301
-0.00559536
0.00559206
0.0185311
-0.00384459
0.00423446
0.020907
-0.00287616
0.00268763
0.0231394
-0.00238223
0.000766294
0.0255706
-0.00186493
-0.00258188
0.0253427
0.0021655
-0.00665498
0.0244703
-0.00394681
0.00196321
-0.00471761
-0.00487105
0.00315353
-0.00925159
-0.00226985
0.00700058
-0.00811972
-0.00192434
0.0102816
-0.00614856
-0.00127564
0.0123958
-0.00438717
-0.00079921
0.0129617
-0.00266842
-0.00060209
0.0111959
-0.000138475
-0.000734624
0.0066334
0.00628517
-0.000690524
0.0287299
0.000373588
0.00174472
-0.00751421
-0.000670182
0.00295925
-0.011249
-0.00103697
0.00475584
-0.0102083
-0.00162111
0.00656799
-0.00794821
-0.0017276
0.00763134
-0.00530658
-0.00143057
0.00731201
-0.00221349
-0.000929869
0.00505593
0.00212937
-0.000257152
0.00114789
0.00987656
0.00077759
0.0282933
0.0021324
0.00132891
-0.00902114
-0.00114463
0.00197289
-0.0119708
-0.00107563
0.00287668
-0.0111792
-0.000996131
0.00383501
-0.00897516
-0.00097758
0.00429812
-0.0057651
-0.000908399
0.00385872
-0.00165682
-0.000732003
0.00229871
0.003865
-0.000327678
-0.000247082
0.0124241
0.000511778
0.0272102
0.00195741
0.00112764
-0.0102172
-0.000643112
0.0016768
-0.012499
-0.000713853
0.0021269
-0.0115446
-0.00063599
0.00248969
-0.00929431
-0.000477943
0.00248356
-0.0057571
-0.000352443
0.00194462
-0.00105289
-0.000354963
0.000832278
0.00516711
-0.000280066
-0.000802643
0.0141543
0.000265576
0.0258471
0.00154084
0.000811148
-0.011002
-0.000481232
0.00107025
-0.0126632
-0.000504114
0.00129423
-0.0116578
-0.000398608
0.00141952
-0.00932943
-0.00022381
0.00125661
-0.00556188
-2.30521e-05
0.000713702
-0.00046086
-2.25321e-05
-0.000171143
0.00620281
-0.000105405
-0.0012008
0.0152947
0.000190562
0.0242225
0.00125294
0.000480577
-0.0114444
-0.000289532
0.000571304
-0.0126735
-0.000295178
0.000649867
-0.0116536
-0.000205608
0.000630123
-0.00923871
-6.2277e-05
0.000393085
-0.00528729
0.000130771
-0.000122083
0.000109291
0.00016834
-0.000847211
0.00705972
4.02476e-05
-0.00141112
0.0159678
0.000178592
0.0225005
0.00102087
0.000219604
-0.0116381
-0.000159076
0.000221945
-0.0126296
-0.000151475
0.00020368
-0.0115868
-8.73819e-05
9.78219e-05
-0.00909086
1.76779e-05
-0.000176645
-0.00497214
0.000160307
-0.000693079
0.000671826
0.000272937
-0.00130986
0.00777555
0.000178472
-0.00150463
0.0162399
0.000227723
0.020741
0.00087023
8.0739e-05
-8.53666e-05
6.06743e-05
-7.00234e-05
-1.21868e-05
-2.17969e-05
-0.000172615
4.82045e-05
-0.000482548
0.000143492
-0.00100278
0.000289787
-0.00144058
0.000269917
-0.00131701
0.000319904
0.000687677
0.00328956
0.00295939
0.0126897
-0.00289449
0.0170956
0.00120579
0.0206033
0.000733948
0.0228609
0.000432128
0.0240847
-0.000458172
0.0232676
-0.00176611
0.0196696
-0.00305902
0.015722
-0.00142282
-0.000563292
-0.000434941
-0.00614697
0.00422051
-0.00535442
0.00787561
-0.00418383
0.0106099
-0.00309537
0.0116074
-0.00205571
0.00989332
-0.000786586
0.00341734
0.00272564
0.0195127
0.00121455
-0.00251616
0.00160652
-0.00757776
0.00324536
-0.00860581
0.0049595
-0.00761813
0.00614143
-0.0057036
0.0060905
-0.0029325
0.00401485
0.00103272
-0.000554217
0.00807213
0.0210908
0.00112527
-0.00481616
0.00187558
-0.0094119
0.00266073
-0.0103883
0.00351008
-0.00944415
0.0038647
-0.00696513
0.0033001
-0.00309869
0.00148485
0.00252085
-0.00179039
0.0118592
0.0212578
0.000971919
-0.00644171
0.00153457
-0.0106932
0.0020151
-0.0115073
0.00245057
-0.0103582
0.00249156
-0.0073584
0.00179674
-0.00275835
4.94472e-05
0.00398837
-0.00222257
0.0143969
0.0205761
0.000743344
-0.00766927
0.00103224
-0.0114884
0.00127151
-0.0121465
0.00144437
-0.0107555
0.00131229
-0.00724951
0.000601662
-0.00207016
-0.00103281
0.00551748
-0.00237295
0.0159276
0.0194561
0.000441603
-0.00840151
0.000550108
-0.011893
0.000639021
-0.0124417
0.000656916
-0.010836
0.000420972
-0.00688291
-0.000327027
-0.00115383
-0.00173357
0.00696432
-0.00236853
0.0167411
0.0181084
0.000191895
-0.00875289
0.000194123
-0.0120471
0.000181789
-0.012517
0.000104373
-0.0107411
-0.000169657
-0.00644863
-0.000999096
-5.14109e-05
-0.00217279
0.00831648
-0.00229413
0.0170902
0.0166845
6.00507e-05
2.73252e-05
-4.01896e-05
-0.000181316
-0.000530005
-0.00146826
-0.00219091
-0.00191879
)
;

boundaryField
{
    inlet
    {
        type            calculated;
        value           uniform 0;
    }
    outlet
    {
        type            calculated;
        value           nonuniform List<scalar> 
81
(
-0.00906515
-0.0118555
-0.0124836
-0.0127024
-0.0127543
-0.012675
-0.012409
-0.0117102
-0.00889832
-0.0121817
-0.0126716
-0.0124564
-0.0122945
-0.0122286
-0.0122754
-0.0124128
-0.0125957
-0.0120844
-0.0125211
-0.0115355
-0.0108742
-0.0104852
-0.0103481
-0.0104722
-0.0108479
-0.0114968
-0.0124713
-0.0105563
-0.00892483
-0.00803395
-0.00748425
-0.00728876
-0.00747578
-0.00801917
-0.00890895
-0.0105518
-0.00594192
-0.0046407
-0.00373472
-0.00308415
-0.00283948
-0.00307746
-0.00372457
-0.00463406
-0.00595645
0.00117224
0.00118469
0.00195815
0.0026835
0.00297767
0.00269109
0.0019703
0.00119599
0.00117664
0.00930426
0.00823496
0.00895015
0.00982488
0.0102003
0.00983362
0.00896429
0.00824868
0.00930906
0.017115
0.0160855
0.0170646
0.0181552
0.018601
0.0181658
0.0170826
0.0161057
0.017138
0.0154207
0.0191934
0.020998
0.0216105
0.0217269
0.0216184
0.0210136
0.0192156
0.0154534
)
;
    }
    lowerWall
    {
        type            calculated;
        value           uniform 0;
    }
    upperWall
    {
        type            calculated;
        value           uniform 0;
    }
}


// ************************************************************************* //
