/*--------------------------------*- C++ -*----------------------------------*\
  =========                 |
  \\      /  F ield         | OpenFOAM: The Open Source CFD Toolbox
   \\    /   O peration     | Website:  https://openfoam.org
    \\  /    A nd           | Version:  11
     \\/     M anipulation  |
\*---------------------------------------------------------------------------*/
FoamFile
{
    format      ascii;
    class       volScalarField::Internal;
    location    "300";
    object      tmp<kEpsilon:G>;
}
// * * * * * * * * * * * * * * * * * * * * * * * * * * * * * * * * * * * * * //

dimensions      [0 2 -3 0 0 0 0];

value           nonuniform List<scalar> 
729
(
4.31089
8.20537
10.7755
12.7441
14.7339
15.3126
15.1938
9.37905
10.4989
0.383204
0.760717
0.795672
1.57501
2.58008
3.38965
3.49107
1.90136
3.97635
0.0118755
0.0754035
0.140025
0.302668
0.550262
0.796397
0.846184
0.904692
3.24869
0.00582055
0.0209698
0.0460404
0.0678959
0.136961
0.213738
0.285102
1.16692
2.50022
0.00842923
0.0279912
0.0510036
0.0690358
0.0925082
0.0972353
0.186979
1.10914
1.82369
0.0108241
0.0330052
0.0625698
0.0829386
0.0855431
0.0549081
0.191363
0.971103
1.32483
0.0122609
0.037452
0.0658171
0.0864257
0.082032
0.0301529
0.210535
0.809181
0.943825
0.0130521
0.0386455
0.068791
0.0888951
0.0764482
0.0136753
0.229377
0.701453
0.716715
0.0133731
0.0392237
0.0687189
0.0877377
0.0707611
0.0217281
0.226943
0.525217
0.456778
13.1323
860.725
1099.28
1251.05
1321.1
1304.27
1134.21
893.568
35.0403
0.614817
5.38879
4.79075
5.5648
6.02488
6.81543
7.42443
3.45065
14.9775
0.0500936
0.476342
1.00048
1.18111
0.651154
0.159479
2.37393
12.7447
9.29458
0.0201307
0.083905
0.0178363
0.0581882
0.0460099
0.247267
2.21205
9.16634
6.24087
0.0281364
0.0328715
0.0210608
0.073978
0.176912
0.61134
2.19838
5.42959
4.13418
0.031103
0.0158207
0.0207779
0.108501
0.313356
0.815303
2.07496
3.19992
2.78821
0.0344497
0.00579311
0.0306012
0.159984
0.426795
0.946581
1.92738
1.94066
1.89891
0.0354961
0.00139353
0.045301
0.214458
0.534562
1.04129
1.79053
1.27151
1.39462
0.0359816
0.000418641
0.0624688
0.26924
0.651729
1.14518
1.53465
0.682075
0.870457
15.3752
1008.53
1300.87
1532.55
1657.12
1657
1430.99
1095.2
47.6412
0.647046
7.81733
5.87528
6.27941
6.72408
8.07591
8.75637
5.30646
21.53
0.0911842
0.693597
1.23662
1.25873
0.555832
0.350812
4.69861
20.0495
13.4307
0.0352804
0.0146661
0.0283035
0.0699229
0.0602226
0.489645
3.864
14.3097
8.98728
0.0445484
0.0123419
0.0538376
0.0971473
0.239282
0.871255
3.33222
8.29851
5.85506
0.048142
0.00357469
0.0485288
0.150699
0.404581
1.10175
2.93945
4.75197
3.86382
0.0514809
0.00171498
0.0640589
0.213633
0.547861
1.23347
2.62325
2.85164
2.58928
0.0526968
0.00393466
0.0831909
0.283051
0.676346
1.33508
2.3789
1.87656
1.8757
0.0531692
0.00828835
0.107714
0.35321
0.807546
1.43875
2.00994
1.03983
1.16401
16.4634
1057.45
1374.86
1646
1800.44
1810.42
1560.07
1174.17
52.1315
0.663781
8.30463
5.70672
6.36459
7.29235
9.43541
10.5558
5.53747
23.7365
0.118432
0.943349
1.51622
1.33319
0.487155
0.537399
6.57004
23.6305
15.0931
0.0447539
0.0174047
0.0434133
0.0870074
0.0757919
0.738685
5.33656
16.4383
10.252
0.0534992
0.0132454
0.0639929
0.108271
0.29667
1.14212
4.37912
9.32059
6.70129
0.0583863
0.00454382
0.0647065
0.17837
0.486366
1.3677
3.70651
5.20225
4.40646
0.0611499
0.00589139
0.0866899
0.255636
0.640012
1.4768
3.19942
3.05862
2.94035
0.0629593
0.0112476
0.110152
0.333158
0.775376
1.55947
2.82115
1.9949
2.11985
0.0632107
0.0183215
0.138792
0.411691
0.911501
1.63864
2.31314
1.07958
1.30933
16.9506
1066.94
1393.93
1677.4
1841.32
1854.41
1597.18
1196.11
53.3039
0.678679
8.42839
5.57047
6.32343
7.47642
9.95949
11.2808
5.45879
24.2076
0.127273
1.03813
1.61102
1.35224
0.460143
0.618474
7.28137
24.5082
15.4761
0.0483858
0.0178748
0.0491477
0.0929569
0.0834458
0.841099
5.89735
16.8711
10.5795
0.0564021
0.0144463
0.0666624
0.113622
0.32199
1.25493
4.77903
9.45853
6.93223
0.061794
0.00566199
0.0715846
0.18976
0.52023
1.47642
3.99276
5.21207
4.55686
0.0644492
0.00814119
0.0949508
0.271184
0.675958
1.57451
3.40591
3.02932
3.03779
0.066262
0.0145379
0.120158
0.352094
0.812554
1.64684
2.97275
1.96168
2.18721
0.0665047
0.0224542
0.149914
0.432865
0.949855
1.71377
2.40976
1.04455
1.34935
16.5309
1058.18
1374.14
1646.15
1800.84
1810.83
1560.42
1174.39
52.1441
0.66513
8.31396
5.64594
6.3528
7.29632
9.44334
10.5613
5.53942
23.747
0.114463
0.868587
1.4998
1.32495
0.486236
0.538349
6.57678
23.642
15.1014
0.0426429
0.00572213
0.0408525
0.0868175
0.0760352
0.740652
5.34389
16.4461
10.2584
0.0531614
0.0139684
0.0621364
0.10804
0.296719
1.14371
4.38453
9.3242
6.70584
0.0580415
0.0044902
0.0638852
0.177737
0.486163
1.36876
3.71022
5.20358
4.40966
0.0608811
0.0056862
0.0858665
0.25479
0.639582
1.47752
3.20195
3.05895
2.94261
0.0626769
0.0109776
0.109386
0.332112
0.774683
1.55986
2.82291
1.99489
2.12159
0.0629475
0.017952
0.137815
0.410465
0.910814
1.63895
2.31423
1.07937
1.31048
15.0181
1020.55
1298.9
1533.26
1657.83
1657.62
1431.61
1095.41
47.6715
0.676469
8.34032
5.72534
6.295
6.74623
8.09825
8.76727
5.3059
21.5527
0.0929513
0.688233
1.22358
1.25037
0.55763
0.35101
4.70497
20.0674
13.4474
0.0341303
0.0217297
0.0242254
0.0710689
0.0609217
0.492562
3.874
14.325
8.99926
0.043728
0.0134542
0.0503928
0.097027
0.239348
0.874213
3.34033
8.30712
5.8633
0.0477741
0.00373953
0.0467858
0.149369
0.404156
1.10355
2.94517
4.7563
3.86955
0.050589
0.00153554
0.0624138
0.21211
0.547162
1.23471
2.6274
2.85383
2.59332
0.052319
0.00346571
0.0815895
0.281077
0.675198
1.33583
2.382
1.87783
1.87881
0.0526074
0.00758997
0.105736
0.350874
0.806414
1.43949
2.01212
1.0404
1.16609
11.4344
903.949
1093.25
1252.17
1321.46
1304.36
1135.08
892.372
35.1101
0.6758
6.69937
4.45108
5.70021
6.07947
6.86446
7.44713
3.43906
15.0132
0.0578721
0.599768
0.97771
1.17929
0.658791
0.158876
2.37354
12.7464
9.31543
0.0189316
0.0901431
0.0154102
0.056595
0.0477635
0.249962
2.21798
9.17619
6.25428
0.0268575
0.0353423
0.019044
0.072895
0.177806
0.614587
2.20478
5.43712
4.14302
0.0303963
0.0173829
0.0191103
0.106854
0.31291
0.817356
2.07972
3.20481
2.79436
0.0337212
0.00678846
0.0285988
0.158372
0.426503
0.948069
1.93111
1.94397
1.90329
0.03479
0.00184573
0.0436353
0.212214
0.533732
1.04226
1.79352
1.27395
1.39806
0.0352734
0.000486989
0.0601369
0.266572
0.650976
1.14634
1.53705
0.683598
0.872804
2.92697
9.11009
10.6823
13.0263
14.8142
15.3992
15.2925
9.32378
10.608
0.420065
0.523767
0.925748
1.51253
2.58819
3.39731
3.50049
1.90696
4.0005
0.0157265
0.0554032
0.156088
0.302061
0.552118
0.795817
0.847552
0.909507
3.26053
0.00521758
0.021387
0.0463296
0.0685985
0.137552
0.214221
0.287107
1.17073
2.50738
0.00783734
0.026862
0.0504145
0.0689196
0.0924844
0.0973231
0.188409
1.11195
1.82878
0.0103511
0.0325758
0.0596195
0.0825641
0.0854664
0.0548313
0.192073
0.97337
1.32878
0.0118025
0.0366282
0.066271
0.0863198
0.081928
0.0300543
0.210886
0.811119
0.946923
0.0125867
0.0379275
0.0675475
0.0884111
0.0763988
0.0134463
0.229606
0.70327
0.719348
0.0129042
0.0384988
0.0679983
0.0873762
0.070798
0.0216127
0.227166
0.52669
0.458676
)
;


// ************************************************************************* //
