/*--------------------------------*- C++ -*----------------------------------*\
  =========                 |
  \\      /  F ield         | OpenFOAM: The Open Source CFD Toolbox
   \\    /   O peration     | Website:  https://openfoam.org
    \\  /    A nd           | Version:  11
     \\/     M anipulation  |
\*---------------------------------------------------------------------------*/
FoamFile
{
    format      ascii;
    class       volVectorField;
    location    "300";
    object      U;
}
// * * * * * * * * * * * * * * * * * * * * * * * * * * * * * * * * * * * * * //

dimensions      [0 1 -1 0 0 0 0];

internalField   nonuniform List<vector> 
729
(
(1.09624 -2.79652 -0.5445)
(0.840252 -1.90365 -0.562381)
(1.4644 -1.28703 -0.558912)
(1.88481 -0.742551 -0.446866)
(2.19151 -0.422799 -0.312076)
(2.35473 -0.236142 -0.150017)
(2.48915 -0.135254 0.131451)
(1.69764 -0.0157709 0.444343)
(3.22757 1.24424 0.33305)
(-0.60307 0.337351 0.154564)
(0.0408822 0.846156 0.323632)
(0.205417 0.418173 0.168238)
(0.633766 0.32107 0.136383)
(0.951905 0.175853 0.097626)
(1.1561 0.0284398 0.0724563)
(1.17366 -0.144555 0.073301)
(0.666272 -0.190637 0.0541217)
(0.346154 1.75567 0.0447585)
(-0.198042 -0.0919782 -0.0907626)
(0.117082 -0.672956 0.0820398)
(0.218076 -0.778315 0.102267)
(0.409694 -0.705544 0.141142)
(0.56697 -0.545137 0.139227)
(0.639113 -0.334241 0.107038)
(0.584497 -0.0420275 0.0405723)
(0.209935 0.500184 -0.0820445)
(-0.233194 2.07088 -0.191922)
(0.0474874 -0.401634 0.0689032)
(0.144574 -0.865711 0.103846)
(0.212507 -0.965232 0.0776162)
(0.30443 -0.88105 0.0738285)
(0.374125 -0.658796 0.0769955)
(0.374448 -0.3144 0.0774086)
(0.301161 0.18203 0.0392341)
(-0.00785284 1.03871 -0.0855393)
(-0.310205 2.16672 -0.236676)
(0.0612026 -0.609965 0.0436569)
(0.125124 -1.04125 0.0509674)
(0.172319 -1.11798 0.0434469)
(0.220905 -1.01211 0.0286903)
(0.249769 -0.738049 0.0213425)
(0.228117 -0.310678 0.0314079)
(0.141226 0.324197 0.0277552)
(-0.127957 1.35202 -0.070327)
(-0.287912 2.11669 -0.209039)
(0.0491487 -0.737043 0.034012)
(0.087757 -1.13195 0.0358063)
(0.111984 -1.19679 0.0267901)
(0.133422 -1.06566 0.0117884)
(0.138463 -0.739043 -0.00390276)
(0.108717 -0.249589 -0.000624244)
(0.0135244 0.476572 0.00907613)
(-0.203782 1.53764 -0.0628161)
(-0.253289 2.00788 -0.176269)
(0.0289856 -0.832991 0.0202889)
(0.0477442 -1.18747 0.0194839)
(0.0569892 -1.24038 0.0129)
(0.0624245 -1.08526 0.00171557)
(0.0551295 -0.708158 -0.0138358)
(0.0175315 -0.163804 -0.0172193)
(-0.0824246 0.631534 -0.0060839)
(-0.245942 1.64509 -0.0587775)
(-0.220473 1.87514 -0.147271)
(0.0129972 -0.882088 0.0115525)
(0.0178978 -1.20966 0.0105545)
(0.0171009 -1.25367 0.00482575)
(0.0131373 -1.07649 -0.00332544)
(0.000231698 -0.65761 -0.015406)
(-0.0477255 -0.0583472 -0.0262366)
(-0.151124 0.764655 -0.0201652)
(-0.267404 1.70505 -0.0592534)
(-0.19109 1.75071 -0.126402)
(0.00585666 -0.902107 0.00786249)
(0.00433069 -1.21677 0.00650033)
(-0.000884122 -1.25359 0.00207925)
(-0.00941379 -1.06124 -0.00431292)
(-0.0267859 -0.607917 -0.014287)
(-0.0959551 0.089907 -0.0288177)
(-0.186911 0.917622 -0.0317604)
(-0.247259 1.70954 -0.0605528)
(-0.146064 1.55867 -0.100524)
(0.442762 -3.98129 -0.516348)
(0.834931 -2.76482 -0.49995)
(1.3372 -1.6297 -0.465317)
(1.72066 -0.942565 -0.364713)
(1.98615 -0.555281 -0.232127)
(2.20308 -0.299092 -0.053972)
(2.44655 -0.0347943 0.249704)
(2.23321 0.711968 0.563203)
(3.79687 2.52341 0.49053)
(0.0466837 0.88322 0.38969)
(0.172199 0.187458 0.228382)
(0.519027 -0.0892501 0.111965)
(0.896845 -0.15561 0.0568094)
(1.16709 -0.184444 0.0340028)
(1.30689 -0.201314 0.0425567)
(1.28979 -0.179385 0.0913865)
(0.834193 0.220436 0.124424)
(0.836448 2.66982 0.168974)
(-0.00278872 -0.89084 0.105469)
(0.218566 -1.21938 0.16804)
(0.371345 -1.04771 0.224762)
(0.575688 -0.796473 0.209284)
(0.736903 -0.550386 0.15928)
(0.783644 -0.290548 0.0979027)
(0.682238 0.0722947 0.0317505)
(0.278145 0.75796 -0.0602402)
(0.107626 2.78363 -0.120413)
(0.0838785 -0.823301 0.116188)
(0.15679 -1.15301 0.115435)
(0.230043 -1.08854 0.110134)
(0.334966 -0.870502 0.112287)
(0.42231 -0.569233 0.100589)
(0.433481 -0.19581 0.0705817)
(0.355211 0.315246 0.020399)
(0.0642174 1.15066 -0.0606134)
(-0.0526567 2.822 -0.173795)
(0.0703712 -1.00876 0.0697684)
(0.143057 -1.25313 0.078189)
(0.187921 -1.15181 0.0652836)
(0.23216 -0.927364 0.0509678)
(0.25731 -0.585241 0.0389515)
(0.236528 -0.136322 0.0332978)
(0.17094 0.462065 0.0153091)
(-0.0406997 1.35653 -0.0324102)
(-0.0808855 2.69219 -0.139196)
(0.0514436 -1.08443 0.0487382)
(0.0948274 -1.27039 0.049323)
(0.116865 -1.16541 0.037391)
(0.137242 -0.934997 0.0196451)
(0.1408 -0.56754 0.000901904)
(0.108235 -0.075622 -0.000947953)
(0.0482031 0.57254 0.0016908)
(-0.112891 1.48469 -0.0177153)
(-0.0899587 2.50864 -0.106316)
(0.0293489 -1.14555 0.0276908)
(0.0524691 -1.27641 0.0269379)
(0.0598943 -1.1706 0.0176072)
(0.0653411 -0.931186 0.00255661)
(0.0562153 -0.544674 -0.0164284)
(0.0209329 -0.0179181 -0.0214778)
(-0.03586 0.665632 -0.0108441)
(-0.156829 1.56916 -0.0126314)
(-0.0963032 2.32759 -0.0834002)
(0.0137373 -1.1726 0.0150752)
(0.0218216 -1.27131 0.0133263)
(0.0210398 -1.16414 0.00634116)
(0.0163529 -0.915246 -0.004606)
(9.86335e-05 -0.510207 -0.0197865)
(-0.0373797 0.0410373 -0.0319278)
(-0.0951871 0.745577 -0.0221272)
(-0.18268 1.62343 -0.0141377)
(-0.0992096 2.17532 -0.0683364)
(0.00677276 -1.18324 0.00961165)
(0.00788393 -1.26716 0.00736721)
(0.00322813 -1.1558 0.00166651)
(-0.00688426 -0.897601 -0.00636756)
(-0.0284646 -0.472872 -0.0165496)
(-0.0705434 0.107191 -0.0296479)
(-0.123611 0.816764 -0.0270007)
(-0.174201 1.61467 -0.0198036)
(-0.0883576 1.94184 -0.0515416)
(0.427252 -4.01718 -0.358867)
(0.878824 -2.89397 -0.363308)
(1.37628 -1.66632 -0.336812)
(1.74071 -0.95875 -0.266841)
(1.98357 -0.573766 -0.172323)
(2.20733 -0.325863 -0.0450581)
(2.4459 -0.0371688 0.158544)
(2.33033 0.912916 0.370379)
(3.73397 2.94598 0.410593)
(0.319499 0.751879 0.208518)
(0.325747 0.0399537 0.108178)
(0.644209 -0.187992 0.0370817)
(0.977037 -0.23881 0.00994477)
(1.20827 -0.246125 0.00603802)
(1.31627 -0.240048 0.0234397)
(1.25903 -0.178411 0.0680434)
(0.788655 0.353065 0.119839)
(0.794801 2.97907 0.245511)
(0.0340485 -1.1767 0.131319)
(0.267617 -1.31276 0.16982)
(0.446336 -1.04651 0.162771)
(0.637756 -0.778833 0.133113)
(0.771581 -0.52939 0.0954517)
(0.788354 -0.254726 0.0582587)
(0.649941 0.150069 0.0212666)
(0.204429 0.940805 -0.0149652)
(0.0582792 3.12218 0.0311308)
(0.0824961 -0.945642 0.0980482)
(0.142662 -1.16807 0.0951439)
(0.226758 -1.02591 0.092903)
(0.344978 -0.790847 0.0911102)
(0.430156 -0.4956 0.0748617)
(0.426601 -0.119983 0.047335)
(0.327667 0.425071 0.00933982)
(0.00936619 1.36198 -0.0339509)
(-0.0946739 3.17332 -0.0422694)
(0.0665942 -1.11487 0.0591386)
(0.136297 -1.24831 0.0567723)
(0.181733 -1.0837 0.0455307)
(0.226934 -0.835479 0.0366166)
(0.24821 -0.487748 0.0298549)
(0.218865 -0.037656 0.021468)
(0.142722 0.578837 0.00185676)
(-0.075857 1.54051 -0.0294284)
(-0.107564 3.00164 -0.0477838)
(0.0481471 -1.16422 0.0374531)
(0.090494 -1.24991 0.0329917)
(0.111827 -1.09448 0.0223201)
(0.132663 -0.841952 0.00915131)
(0.130442 -0.468249 -0.00217901)
(0.0888543 0.0282914 -0.00500956)
(0.0213642 0.684471 -0.00988773)
(-0.137924 1.6372 -0.0291874)
(-0.106545 2.76504 -0.0461254)
(0.0273706 -1.2163 0.0208741)
(0.0507882 -1.25603 0.0171103)
(0.0573376 -1.10263 0.00870221)
(0.06104 -0.840663 -0.00317655)
(0.0470286 -0.445375 -0.0168098)
(0.00372074 0.0838947 -0.0222577)
(-0.0577202 0.76797 -0.0211343)
(-0.175142 1.69895 -0.0313335)
(-0.107469 2.54717 -0.045103)
(0.0127011 -1.23872 0.0111156)
(0.0213032 -1.25098 0.00825242)
(0.0197618 -1.09816 0.00190799)
(0.013181 -0.826371 -0.00732138)
(-0.00785727 -0.415423 -0.0200923)
(-0.0505457 0.134017 -0.0302264)
(-0.109871 0.835493 -0.0300982)
(-0.194222 1.73629 -0.0345771)
(-0.106275 2.37324 -0.0435605)
(0.00624834 -1.24705 0.00724492)
(0.00787894 -1.24633 0.00466105)
(0.00268688 -1.09011 -0.000564998)
(-0.00941984 -0.808446 -0.00788732)
(-0.0347269 -0.381605 -0.0177739)
(-0.0767828 0.185338 -0.0282947)
(-0.128767 0.887807 -0.03158)
(-0.178396 1.71125 -0.0342151)
(-0.0918491 2.12245 -0.0373359)
(0.440855 -4.0585 -0.171032)
(0.911077 -2.92912 -0.170914)
(1.40963 -1.66231 -0.159756)
(1.76844 -0.94906 -0.129231)
(2.00383 -0.571135 -0.0839119)
(2.22993 -0.332272 -0.0206188)
(2.46277 -0.0361965 0.0764243)
(2.35826 0.975211 0.173094)
(3.66867 3.07317 0.212981)
(0.387058 0.666171 0.0816044)
(0.393948 0.01148 0.0481594)
(0.703735 -0.192366 0.0135154)
(1.01615 -0.241384 -0.00093454)
(1.22749 -0.248607 -0.00133138)
(1.31663 -0.241641 0.0103996)
(1.23201 -0.171314 0.0360068)
(0.744759 0.401745 0.0691165)
(0.724661 3.02733 0.159686)
(0.0459251 -1.24067 0.0825191)
(0.296288 -1.31159 0.0943403)
(0.492296 -1.03202 0.0833413)
(0.670669 -0.765174 0.0645045)
(0.78281 -0.514561 0.0451319)
(0.775043 -0.230192 0.0274155)
(0.606623 0.199248 0.0114431)
(0.13093 1.04877 0.00223157)
(-0.0183469 3.19705 0.0534391)
(0.0811857 -0.99525 0.0495952)
(0.139258 -1.17061 0.0502429)
(0.234221 -1.00768 0.0528383)
(0.355207 -0.765291 0.0500267)
(0.429119 -0.466215 0.0390906)
(0.407372 -0.0770249 0.0228514)
(0.284792 0.502018 0.00309121)
(-0.0601089 1.51608 -0.0131804)
(-0.165764 3.28379 0.00647341)
(0.0641002 -1.15373 0.0323656)
(0.132774 -1.2417 0.0306606)
(0.176777 -1.05448 0.025709)
(0.219888 -0.792267 0.0217543)
(0.235103 -0.438752 0.0172258)
(0.19442 0.0220324 0.0101607)
(0.101516 0.669538 -0.00182525)
(-0.131873 1.70142 -0.0144581)
(-0.165055 3.11421 -0.003525)
(0.0459811 -1.19563 0.0197778)
(0.0870716 -1.23916 0.0174581)
(0.10681 -1.06026 0.0119825)
(0.12486 -0.792003 0.00495893)
(0.115399 -0.408485 -0.00102469)
(0.0641167 0.0986135 -0.00386117)
(-0.0169076 0.780888 -0.00813251)
(-0.182694 1.78847 -0.0158013)
(-0.151664 2.86256 -0.00646638)
(0.0259539 -1.24325 0.011141)
(0.0483848 -1.2428 0.00899351)
(0.0532112 -1.06587 0.00432565)
(0.0540469 -0.787307 -0.00251176)
(0.0341475 -0.3806 -0.0101075)
(-0.0176337 0.15923 -0.0136757)
(-0.0903053 0.865484 -0.0141335)
(-0.211055 1.83753 -0.0173085)
(-0.142962 2.63114 -0.00838371)
(0.0116742 -1.26261 0.00591239)
(0.0198838 -1.23606 0.00423119)
(0.0168637 -1.06019 0.000537853)
(0.00768073 -0.771937 -0.00500473)
(-0.0182602 -0.349701 -0.0123668)
(-0.067599 0.210092 -0.0181135)
(-0.135324 0.930603 -0.0186279)
(-0.222076 1.8624 -0.0186977)
(-0.133772 2.44844 -0.00918657)
(0.00573228 -1.26946 0.00412172)
(0.00696422 -1.23044 0.00248208)
(0.000623329 -1.05136 -0.000670721)
(-0.013666 -0.753446 -0.0051623)
(-0.0428982 -0.316363 -0.0110291)
(-0.08884 0.258269 -0.0168472)
(-0.145891 0.975699 -0.0186804)
(-0.19812 1.8213 -0.0174223)
(-0.111244 2.18623 -0.00806435)
(0.447505 -4.09846 0.0102888)
(0.923362 -2.94178 0.00415911)
(1.42175 -1.66037 0.00330953)
(1.77936 -0.944585 0.00252262)
(2.01293 -0.568883 0.002063)
(2.23939 -0.332925 0.00177002)
(2.46932 -0.0343942 0.00156993)
(2.36586 0.992911 0.00126797)
(3.64795 3.10602 0.00053002)
(0.403162 0.64591 -4.47771e-05)
(0.413315 0.00443765 0.00332187)
(0.721638 -0.19157 0.00319788)
(1.02837 -0.239074 0.00234916)
(1.23373 -0.246715 0.00177547)
(1.31662 -0.240277 0.00142229)
(1.22283 -0.16801 0.00117093)
(0.729261 0.415422 0.000951904)
(0.701044 3.02742 0.00067964)
(0.0513048 -1.25232 -0.00346216)
(0.307761 -1.31164 0.0024655)
(0.507224 -1.02865 0.00241846)
(0.680739 -0.760537 0.00142368)
(0.785357 -0.508838 0.000988247)
(0.768842 -0.221136 0.000799816)
(0.589711 0.216306 0.000674508)
(0.103205 1.08506 0.000562677)
(-0.0467876 3.1985 0.0004397)
(0.0814391 -1.01219 -0.00359071)
(0.139524 -1.17338 0.000915747)
(0.237719 -1.00467 0.000601277)
(0.358446 -0.758949 -4.84239e-06)
(0.427513 -0.457106 -2.96e-05)
(0.398595 -0.0620164 9.73188e-05)
(0.266745 0.52952 0.00022117)
(-0.0878209 1.56897 0.000297923)
(-0.19338 3.30056 0.000286166)
(0.0636434 -1.1642 -0.00114798)
(0.13154 -1.23856 -0.000695515)
(0.174656 -1.04559 -0.000407119)
(0.216663 -0.778793 -0.000559215)
(0.229219 -0.422697 -0.000542627)
(0.183764 0.0432147 -0.000358979)
(0.0836709 0.703289 -0.000111978)
(-0.155081 1.75942 9.45461e-05)
(-0.188219 3.13599 0.00018844)
(0.0450794 -1.20437 -0.000308132)
(0.0856912 -1.23495 -0.000143047)
(0.104649 -1.04903 -0.00028823)
(0.121212 -0.775231 -0.000530269)
(0.108712 -0.387739 -0.000643291)
(0.0533575 0.124286 -0.000552435)
(-0.0336251 0.817996 -0.000308393)
(-0.202012 1.84478 -5.76173e-05)
(-0.170392 2.88185 0.000109464)
(0.0253778 -1.25025 7.39327e-06)
(0.0473185 -1.2374 -5.62579e-05)
(0.0513549 -1.05328 -0.000227826)
(0.0509263 -0.768764 -0.000424686)
(0.0283539 -0.357291 -0.000570236)
(-0.0271262 0.187562 -0.000565766)
(-0.105031 0.904088 -0.000389582)
(-0.227337 1.89028 -0.000153742)
(-0.158146 2.64725 4.60672e-05)
(0.0112578 -1.26855 8.98043e-05)
(0.0192126 -1.22996 -3.09437e-05)
(0.0155619 -1.04692 -0.00019773)
(0.00519881 -0.75273 -0.000351935)
(-0.0229507 -0.325494 -0.00046739)
(-0.0754624 0.239656 -0.000491907)
(-0.147545 0.969397 -0.000391588)
(-0.235574 1.91138 -0.00019956)
(-0.145997 2.46247 4.61239e-06)
(0.00541954 -1.27486 0.000509317)
(0.00646789 -1.22398 0.000208004)
(-0.00040214 -1.03775 -2.62664e-05)
(-0.0156926 -0.733939 -0.00020571)
(-0.0466707 -0.291936 -0.000328997)
(-0.09484 0.287703 -0.000394209)
(-0.155031 1.01322 -0.000346017)
(-0.208706 1.86586 -0.000208518)
(-0.120436 2.19819 -2.31504e-05)
(0.434773 -4.06579 0.206757)
(0.90993 -2.93712 0.181556)
(1.4094 -1.66431 0.166854)
(1.76835 -0.949553 0.134198)
(2.00377 -0.571073 0.0878671)
(2.22994 -0.332109 0.0240063)
(2.46272 -0.035922 -0.0734037)
(2.35824 0.975586 -0.170718)
(3.66867 3.07349 -0.212226)
(0.394719 0.662901 -0.0819125)
(0.393576 0.00535884 -0.0400764)
(0.70452 -0.193433 -0.00623307)
(1.01597 -0.241436 0.00575447)
(1.2272 -0.248356 0.00485196)
(1.31641 -0.24134 -0.00760697)
(1.23179 -0.170947 -0.0337374)
(0.74443 0.402342 -0.0673509)
(0.724591 3.02801 -0.158658)
(0.0491271 -1.23962 -0.0941124)
(0.297737 -1.31585 -0.0933569)
(0.494166 -1.03343 -0.0794232)
(0.670795 -0.764923 -0.061793)
(0.782547 -0.514107 -0.0431376)
(0.774741 -0.229695 -0.0258299)
(0.606308 0.199816 -0.0101296)
(0.130535 1.04958 -0.0011933)
(-0.0185483 3.19779 -0.0527904)
(0.0832568 -0.986667 -0.056488)
(0.137853 -1.16917 -0.0524842)
(0.235681 -1.00713 -0.0529595)
(0.355715 -0.764533 -0.0502244)
(0.428991 -0.465647 -0.0391656)
(0.407183 -0.0764506 -0.0226816)
(0.28454 0.502698 -0.00266902)
(-0.060461 1.51707 0.0137275)
(-0.166002 3.28459 -0.00606053)
(0.0652137 -1.14841 -0.0341553)
(0.133639 -1.23884 -0.0315525)
(0.177181 -1.05357 -0.0264484)
(0.219917 -0.791254 -0.0228732)
(0.235057 -0.437989 -0.0183176)
(0.194307 0.0227261 -0.0108931)
(0.101322 0.670314 0.00159322)
(-0.132144 1.70249 0.0146172)
(-0.165271 3.11502 0.00377181)
(0.0458774 -1.19158 -0.0202659)
(0.0873392 -1.23684 -0.0179074)
(0.107071 -1.05879 -0.0126092)
(0.124929 -0.790984 -0.0059882)
(0.115438 -0.407704 -0.000223225)
(0.0640643 0.0993581 0.00277589)
(-0.0170493 0.781734 0.00752566)
(-0.182893 1.78957 0.0156718)
(-0.151838 2.86335 0.00657877)
(0.0260534 -1.24012 -0.0110769)
(0.0486125 -1.24074 -0.00913446)
(0.0534301 -1.06452 -0.00477675)
(0.0541907 -0.786376 0.00170111)
(0.0342413 -0.379852 0.00902298)
(-0.0176288 0.159991 0.012588)
(-0.090397 0.866367 0.013381)
(-0.211199 1.83864 0.0169997)
(-0.143095 2.63192 0.00839149)
(0.0117598 -1.25969 -0.00571697)
(0.0200822 -1.23406 -0.00429849)
(0.0170742 -1.05885 -0.000929415)
(0.00786035 -0.771044 0.00432633)
(-0.0181307 -0.348974 0.0114785)
(-0.0675564 0.210845 0.0171787)
(-0.135379 0.931492 0.0178818)
(-0.222185 1.86349 0.0183058)
(-0.133874 2.44923 0.00912836)
(0.00579405 -1.26673 -0.00311058)
(0.00709494 -1.22855 -0.00207966)
(0.000765932 -1.05008 0.000617544)
(-0.0135376 -0.752618 0.00476531)
(-0.0428092 -0.31571 0.0104017)
(-0.0887913 0.259024 0.0160989)
(-0.145929 0.976578 0.0180242)
(-0.198207 1.82238 0.017014)
(-0.111317 2.18703 0.00796694)
(0.399453 -3.93609 0.414034)
(0.872639 -2.91596 0.378287)
(1.37466 -1.66983 0.343582)
(1.74078 -0.960279 0.271062)
(1.98374 -0.57389 0.175537)
(2.20768 -0.325702 0.0478647)
(2.44602 -0.0365536 -0.155947)
(2.33046 0.913576 -0.368573)
(3.7341 2.94624 -0.410714)
(0.364434 0.785151 -0.214098)
(0.321223 0.0163345 -0.0933262)
(0.644423 -0.188959 -0.0276162)
(0.975192 -0.238582 -0.00514949)
(1.20727 -0.24531 -0.00285159)
(1.31578 -0.239308 -0.0209378)
(1.25868 -0.177601 -0.0660548)
(0.788135 0.354244 -0.118498)
(0.794963 2.98033 -0.245331)
(0.0622329 -1.17799 -0.156397)
(0.273456 -1.30739 -0.167834)
(0.4492 -1.04837 -0.158717)
(0.63649 -0.778149 -0.130534)
(0.770561 -0.528403 -0.0936164)
(0.787597 -0.253683 -0.0568446)
(0.649375 0.151213 -0.0201177)
(0.203825 0.942226 0.0157428)
(0.0582011 3.12376 -0.0310681)
(0.0908984 -0.929288 -0.107063)
(0.146268 -1.16006 -0.0987512)
(0.22896 -1.02586 -0.0941645)
(0.345436 -0.79009 -0.0914958)
(0.429688 -0.494812 -0.0751282)
(0.426204 -0.118954 -0.0473222)
(0.327272 0.426322 -0.00901658)
(0.00884591 1.3637 0.0343357)
(-0.0948501 3.17492 0.0422773)
(0.0676274 -1.10132 -0.0606464)
(0.137285 -1.24062 -0.0572244)
(0.182881 -1.08107 -0.0461587)
(0.227136 -0.833748 -0.037634)
(0.248188 -0.486594 -0.0309697)
(0.218724 -0.036443 -0.0222449)
(0.14248 0.580214 -0.00211555)
(-0.0762365 1.54237 0.0295006)
(-0.107754 3.00322 0.0477159)
(0.048663 -1.1548 -0.0377531)
(0.0910526 -1.24434 -0.0333149)
(0.112444 -1.09153 -0.0228677)
(0.132908 -0.840193 -0.0100155)
(0.13065 -0.466984 0.00106978)
(0.0888737 0.0295675 0.00401195)
(0.0212372 0.685933 0.00932397)
(-0.138169 1.63909 0.029034)
(-0.106698 2.7666 0.0459915)
(0.0276648 -1.20818 -0.020733)
(0.051297 -1.25126 -0.0172482)
(0.0578783 -1.09986 -0.00908798)
(0.0614128 -0.839026 0.00249766)
(0.0473149 -0.444185 0.0159014)
(0.0038507 0.0851547 0.0213249)
(-0.0577506 0.769459 0.0204779)
(-0.175289 1.70083 0.0310469)
(-0.107578 2.54873 0.0449286)
(0.0128158 -1.23094 -0.0108841)
(0.0217542 -1.24643 -0.00831773)
(0.0202595 -1.09545 -0.00227212)
(0.0136043 -0.824809 0.0067294)
(-0.00752166 -0.414277 0.0193452)
(-0.0503547 0.13523 0.0294462)
(-0.109842 0.836959 0.0294739)
(-0.194316 1.73815 0.0342354)
(-0.106353 2.37482 0.0433702)
(0.00646999 -1.23961 -0.00634265)
(0.00819511 -1.242 -0.00430259)
(0.00302907 -1.08752 0.000509262)
(-0.00911113 -0.807003 0.00753272)
(-0.0344905 -0.380617 0.0172332)
(-0.0765948 0.186542 0.0276625)
(-0.12873 0.889232 0.0310362)
(-0.17847 1.71307 0.03386)
(-0.0919006 2.12403 0.037156)
(0.284861 -3.58764 0.519661)
(0.823548 -2.83217 0.523175)
(1.33349 -1.63606 0.469436)
(1.72315 -0.948408 0.368059)
(1.98813 -0.556995 0.234631)
(2.20506 -0.299955 0.0560368)
(2.44761 -0.0334622 -0.247757)
(2.23396 0.71296 -0.562339)
(3.79706 2.52259 -0.490817)
(0.172533 1.10397 -0.418655)
(0.135792 0.103762 -0.215567)
(0.511576 -0.0840387 -0.104103)
(0.890448 -0.155036 -0.053909)
(1.16472 -0.182392 -0.0320107)
(1.30624 -0.199813 -0.0407968)
(1.28965 -0.177839 -0.0899217)
(0.833775 0.222341 -0.123875)
(0.837565 2.67108 -0.16969)
(0.0927979 -0.91544 -0.124825)
(0.230377 -1.22933 -0.18925)
(0.376077 -1.05527 -0.219397)
(0.571763 -0.796259 -0.208269)
(0.73473 -0.548755 -0.157956)
(0.782381 -0.288796 -0.0969038)
(0.681646 0.0741958 -0.0309161)
(0.277685 0.759876 0.0605538)
(0.108253 2.78516 0.119754)
(0.106886 -0.78565 -0.12655)
(0.163392 -1.14955 -0.121383)
(0.234608 -1.09142 -0.111023)
(0.33516 -0.871262 -0.113199)
(0.421854 -0.56864 -0.101181)
(0.433015 -0.194506 -0.0707798)
(0.354937 0.316948 -0.0201856)
(0.0639122 1.15266 0.0607769)
(-0.0521962 2.82363 0.173268)
(0.0737147 -0.983316 -0.0711686)
(0.144232 -1.2433 -0.0792595)
(0.189673 -1.14834 -0.0657842)
(0.232899 -0.926016 -0.0517942)
(0.257556 -0.584314 -0.0399385)
(0.236564 -0.134979 -0.0340361)
(0.170915 0.463759 -0.0155398)
(-0.0408527 1.35855 0.0324181)
(-0.0805641 2.69396 0.138766)
(0.0526693 -1.06758 -0.0489593)
(0.0956969 -1.2612 -0.049535)
(0.117748 -1.16136 -0.0378479)
(0.137889 -0.933226 -0.020379)
(0.141295 -0.56649 -0.00179677)
(0.108522 -0.0742943 0.000143336)
(0.0483451 0.574199 -0.00213043)
(-0.11291 1.48671 0.017601)
(-0.0897065 2.51056 0.105932)
(0.029905 -1.13029 -0.0276229)
(0.0534508 -1.26835 -0.0271614)
(0.0609082 -1.16677 -0.0179869)
(0.0660549 -0.92946 -0.00312138)
(0.0568061 -0.543675 0.01574)
(0.0213569 -0.0166754 0.0207958)
(-0.0355977 0.667194 0.0103828)
(-0.156759 1.5712 0.0124463)
(-0.096094 2.32966 0.0830649)
(0.0141587 -1.15776 -0.0148735)
(0.0225935 -1.26347 -0.0133628)
(0.0219599 -1.16014 -0.00664351)
(0.0171286 -0.913553 0.00413745)
(0.000755954 -0.509277 0.0192399)
(-0.0368906 0.0421688 0.0313806)
(-0.094869 0.747036 0.0217247)
(-0.182581 1.62547 0.0139241)
(-0.0990454 2.17752 0.0680469)
(0.00708131 -1.16873 -0.00895373)
(0.00844486 -1.2596 -0.00706576)
(0.00384362 -1.15198 -0.00170054)
(-0.00631778 -0.89606 0.00608846)
(-0.0279955 -0.472238 0.0161368)
(-0.0700787 0.108283 0.029177)
(-0.12334 0.81815 0.0266473)
(-0.17413 1.61673 0.0195609)
(-0.0882333 1.9441 0.0513227)
(0.0536594 -2.03084 0.441151)
(1.03477 -2.14585 0.59643)
(1.4155 -1.3078 0.554709)
(1.91671 -0.771698 0.451407)
(2.19712 -0.432298 0.313684)
(2.36418 -0.243896 0.151301)
(2.49409 -0.131629 -0.128966)
(1.69915 -0.0171726 -0.445261)
(3.22761 1.2439 -0.336528)
(-0.0743563 1.04072 -0.379096)
(-0.298009 0.309817 -0.107397)
(0.250805 0.494483 -0.166996)
(0.597329 0.315277 -0.126126)
(0.950076 0.18616 -0.093637)
(1.15528 0.0331975 -0.069885)
(1.17586 -0.14036 -0.0719543)
(0.667083 -0.187989 -0.0540858)
(0.351661 1.75516 -0.0452791)
(0.110451 -0.220341 -0.0415582)
(0.0971734 -0.698241 -0.0218925)
(0.253777 -0.80721 -0.107326)
(0.399418 -0.703797 -0.138023)
(0.564223 -0.542909 -0.138811)
(0.636846 -0.330328 -0.106299)
(0.584199 -0.0379322 -0.0398514)
(0.210119 0.502 0.0822135)
(-0.229745 2.07193 0.191529)
(0.0950426 -0.347535 -0.0938607)
(0.147827 -0.866963 -0.0832708)
(0.226464 -0.972692 -0.0797541)
(0.305011 -0.884155 -0.0733033)
(0.374107 -0.659685 -0.0774601)
(0.373899 -0.312787 -0.0777755)
(0.301392 0.184532 -0.0390841)
(-0.00741501 1.04023 0.0856122)
(-0.307614 2.16835 0.236629)
(0.0668579 -0.57679 -0.0469809)
(0.126653 -1.02381 -0.0487526)
(0.176775 -1.1133 -0.0449621)
(0.222401 -1.01083 -0.029313)
(0.250721 -0.737877 -0.021884)
(0.228569 -0.309409 -0.0320265)
(0.141854 0.325992 -0.0279156)
(-0.127384 1.35344 0.0703082)
(-0.286162 2.11888 0.209104)
(0.0505412 -0.716718 -0.0347673)
(0.0889606 -1.1187 -0.0353827)
(0.114071 -1.19122 -0.026751)
(0.134766 -1.06388 -0.0123424)
(0.139553 -0.738848 0.00336461)
(0.109604 -0.248715 8.22618e-05)
(0.0143934 0.477606 -0.00935123)
(-0.203213 1.53914 0.062731)
(-0.252117 2.01046 0.176365)
(0.0297819 -0.815309 -0.0205272)
(0.0490455 -1.17656 -0.0196879)
(0.0585507 -1.2349 -0.0126207)
(0.0636914 -1.08401 -0.00204342)
(0.0562455 -0.708519 0.0134307)
(0.018633 -0.163234 0.0168542)
(-0.0814675 0.63216 0.00581463)
(-0.245431 1.64683 0.0586652)
(-0.219715 1.87805 0.147381)
(0.0135774 -0.864882 -0.0115754)
(0.0191162 -1.19954 -0.0105587)
(0.0185673 -1.24856 -0.00550373)
(0.0144155 -1.07568 0.00293761)
(0.00146471 -0.658111 0.0150461)
(-0.0465461 -0.0576681 0.025926)
(-0.150183 0.765118 0.0199441)
(-0.267006 1.70704 0.059146)
(-0.190637 1.75387 0.126517)
(0.00625738 -0.885421 -0.00765057)
(0.00524719 -1.20706 -0.00636202)
(0.000205471 -1.24863 -0.002104)
(-0.00848105 -1.06079 0.0041079)
(-0.0259576 -0.609312 0.0139693)
(-0.0948433 0.0902158 0.0285016)
(-0.186189 0.918121 0.0315715)
(-0.247057 1.71186 0.0604643)
(-0.145805 1.56193 0.100678)
)
;

boundaryField
{
    inlet
    {
        type            fixedValue;
        value           uniform (10 0 0);
    }
    outlet
    {
        type            zeroGradient;
    }
    lowerWall
    {
        type            noSlip;
    }
    upperWall
    {
        type            noSlip;
    }
}


// ************************************************************************* //
