/*--------------------------------*- C++ -*----------------------------------*\
| =========                 |                                                 |
| \\      /  F ield         | OpenFOAM: The Open Source CFD Toolbox           |
|  \\    /   O peration     | Version:  2306                                  |
|   \\  /    A nd           | Website:  www.openfoam.com                      |
|    \\/     M anipulation  |                                                 |
\*---------------------------------------------------------------------------*/
FoamFile
{
    version     2.0;
    format      ascii;
    arch        "LSB;label=32;scalar=64";
    class       volScalarField;
    location    "1.5";
    object      p;
}
// * * * * * * * * * * * * * * * * * * * * * * * * * * * * * * * * * * * * * //

dimensions      [0 2 -2 0 0 0 0];

internalField   nonuniform List<scalar> 
288632
(
41.6425
41.6343
41.6429
41.6621
41.6895
41.7241
41.7656
41.8019
41.9031
41.7793
42.0666
41.8992
41.9973
-0.0362443
0.0701579
-0.266308
-0.00822255
-0.102153
-0.0880485
-0.0726102
-0.0583573
-0.0446471
-0.0314331
-0.0190529
-0.00650011
41.6363
41.6325
41.6419
41.6612
41.6887
41.7234
41.7649
41.8014
41.9022
41.7789
42.0656
41.8979
41.9971
-0.0365762
0.0707213
-0.267371
-0.00866839
-0.102828
-0.0886995
-0.0731651
-0.0588126
-0.0450011
-0.031685
-0.0192049
-0.00655273
41.6329
41.6302
41.64
41.6595
41.687
41.7217
41.7633
41.8002
41.9001
41.7788
42.0639
41.8968
41.997
-0.0380477
0.0679437
-0.269536
-0.0107026
-0.104491
-0.0900598
-0.0742955
-0.0597324
-0.0457127
-0.0321905
-0.0195072
-0.00665323
41.6288
41.627
41.6372
41.6568
41.6844
41.7191
41.7609
41.7983
41.8969
41.7784
42.061
41.8958
41.9967
-0.0403498
0.0664817
-0.272097
-0.0128199
-0.106686
-0.0920341
-0.0759737
-0.0611006
-0.0467712
-0.0329423
-0.0199563
-0.00680241
41.6245
41.6232
41.6337
41.6533
41.6809
41.7157
41.7576
41.7957
41.8926
41.7777
42.0574
41.8946
41.9961
-0.0436014
0.0618137
-0.276099
-0.0162887
-0.109699
-0.0946437
-0.0781812
-0.0628996
-0.0481626
-0.0339305
-0.0205465
-0.00699822
41.6199
41.6189
41.6295
41.6491
41.6766
41.7114
41.7535
41.7924
41.8873
41.7769
42.0529
41.8932
41.9953
-0.0480339
0.0579006
-0.280584
-0.0203205
-0.113367
-0.0978436
-0.0808884
-0.0651052
-0.0498683
-0.0351418
-0.0212697
-0.0072381
41.615
41.6141
41.6247
41.6442
41.6716
41.7064
41.7487
41.7885
41.8812
41.7762
42.0478
41.8917
41.9944
-0.0535972
0.0521899
-0.28593
-0.0251004
-0.117663
-0.101592
-0.0840591
-0.0676876
-0.051865
-0.0365599
-0.0221164
-0.00751884
41.6098
41.6088
41.6194
41.6387
41.666
41.7007
41.7432
41.784
41.8743
41.7756
42.0423
41.8903
41.9938
-0.0600248
0.0459859
-0.291967
-0.0305374
-0.12253
-0.105839
-0.0876506
-0.0706115
-0.0541254
-0.0381651
-0.0230748
-0.00783661
41.6042
41.6032
41.6136
41.6327
41.6597
41.6944
41.7371
41.7789
41.8669
41.775
42.0367
41.8892
41.9935
-0.0671973
0.0390231
-0.298628
-0.0365623
-0.127906
-0.11053
-0.091617
-0.0738402
-0.0566177
-0.0399355
-0.0241317
-0.00818697
41.5985
41.5974
41.6075
41.6263
41.653
41.6876
41.7304
41.7734
41.8589
41.7739
42.0322
41.8889
41.9941
-0.0749993
0.0315168
-0.305811
-0.0430732
-0.133709
-0.115595
-0.0959015
-0.0773444
-0.0593319
-0.0418491
-0.0252724
-0.00856494
41.5926
41.5913
41.6011
41.6196
41.646
41.6803
41.7233
41.7675
41.8507
41.7725
42.0291
41.8895
41.9958
-0.0833227
0.0235304
-0.313419
-0.0499788
-0.139856
-0.120956
-0.100434
-0.0810345
-0.0621836
-0.0438845
-0.0264808
-0.00896503
41.5866
41.5851
41.5946
41.6126
41.6386
41.6728
41.7159
41.7613
41.8426
41.772
42.0265
41.8915
41.9989
-0.092028
0.0151954
-0.321341
-0.057175
-0.146254
-0.126535
-0.105148
-0.0848714
-0.0651497
-0.0459905
-0.0277422
-0.00938129
41.5806
41.579
41.588
41.6056
41.6311
41.665
41.7083
41.755
41.8347
41.7725
42.0251
41.8952
42.004
-0.101
0.00664075
-0.329451
-0.0645511
-0.15281
-0.132249
-0.109975
-0.0887987
-0.0681844
-0.0481441
-0.0290302
-0.00980698
41.5748
41.5729
41.5815
41.5986
41.6236
41.6572
41.7007
41.7488
41.8273
41.7741
42.0251
41.9008
42.0113
-0.110088
-0.00199773
-0.337631
-0.0719908
-0.159419
-0.138007
-0.114838
-0.0927557
-0.071241
-0.0503125
-0.0303245
-0.0102386
41.5691
41.567
41.5752
41.5917
41.6162
41.6496
41.6932
41.7426
41.8207
41.7767
42.0268
41.9087
42.021
-0.119163
-0.0105888
-0.345743
-0.0793765
-0.165977
-0.143717
-0.11966
-0.0966791
-0.074271
-0.0524614
-0.0316066
-0.0106658
41.5638
41.5614
41.5691
41.585
41.6091
41.6421
41.6859
41.7367
41.8149
41.7805
42.0304
41.9189
42.0334
-0.128063
-0.0189881
-0.353658
-0.0865884
-0.172376
-0.149289
-0.124363
-0.100505
-0.077225
-0.0545566
-0.0328563
-0.0110798
41.5589
41.5562
41.5634
41.5788
41.6022
41.635
41.679
41.7312
41.8101
41.7854
42.0358
41.9315
42.0484
-0.136655
-0.0270616
-0.361243
-0.0935083
-0.178509
-0.154628
-0.12887
-0.10417
-0.0800542
-0.0565631
-0.034053
-0.0114759
41.5545
41.5515
41.5582
41.5729
41.5959
41.6283
41.6726
41.7262
41.8062
41.7912
42.0429
41.946
42.0658
-0.144781
-0.0346698
-0.368365
-0.100019
-0.184272
-0.159643
-0.133102
-0.107612
-0.0827115
-0.0584468
-0.0351762
-0.0118478
41.5506
41.5473
41.5535
41.5677
41.5901
41.6223
41.6668
41.7218
41.8033
41.7978
42.0512
41.962
42.085
-0.152321
-0.0417282
-0.374904
-0.106016
-0.189567
-0.164251
-0.13699
-0.110772
-0.0851504
-0.060176
-0.0362073
-0.012189
41.5475
41.5438
41.5494
41.5631
41.585
41.617
41.6617
41.718
41.8013
41.8046
42.0605
41.9789
42.1051
-0.159144
-0.0480173
-0.380734
-0.111382
-0.194295
-0.168368
-0.140463
-0.113596
-0.0873293
-0.0617205
-0.037128
-0.0124937
41.5453
41.541
41.5461
41.5592
41.5807
41.6124
41.6573
41.7149
41.8
41.8113
42.0699
41.9955
42.1248
-0.165143
-0.0536622
-0.385766
-0.116066
-0.198384
-0.171924
-0.143461
-0.116032
-0.0892094
-0.0630528
-0.0379222
-0.0127566
41.5439
41.539
41.5434
41.556
41.5772
41.6087
41.6539
41.7125
41.7993
41.8175
42.0788
42.0107
42.1431
-0.170209
-0.0581837
-0.389874
-0.119893
-0.201741
-0.174849
-0.145929
-0.118038
-0.0907569
-0.0641494
-0.0385757
-0.0129728
41.5437
41.5377
41.5415
41.5537
41.5745
41.606
41.6513
41.7108
41.799
41.8226
42.0865
42.0237
42.1588
-0.174293
-0.0621074
-0.393021
-0.122953
-0.204332
-0.177101
-0.147825
-0.119578
-0.0919445
-0.0649907
-0.0390769
-0.0131383
41.5438
41.537
41.5402
41.5521
41.5728
41.6041
41.6495
41.7097
41.7989
41.8264
42.092
42.0333
42.1709
-0.177338
-0.0644838
-0.395113
-0.124953
-0.206078
-0.178619
-0.14911
-0.120622
-0.0927497
-0.0655612
-0.0394166
-0.0132503
41.5492
41.5375
41.5397
41.5514
41.572
41.6033
41.6488
41.7092
41.799
41.8287
42.0957
42.0381
42.1789
-0.179316
-0.0666959
-0.39607
-0.126161
-0.206981
-0.179395
-0.149767
-0.121155
-0.0931599
-0.0658518
-0.0395886
-0.0133062
41.6357
41.6318
41.6411
41.6604
41.6878
41.7224
41.7639
41.8002
41.901
41.7775
42.0642
41.8968
41.9961
-0.0371664
0.0696937
-0.267379
-0.0095026
-0.102618
-0.0884769
-0.0728188
-0.0584071
-0.0445952
-0.031333
-0.018957
-0.00645479
41.6295
41.63
41.6401
41.6596
41.687
41.7216
41.7632
41.7997
41.9
41.7781
42.0597
41.8955
41.9959
-0.037405
0.070221
-0.268467
-0.00997545
-0.103316
-0.0891464
-0.0733836
-0.0588694
-0.0449542
-0.0315882
-0.0191108
-0.00650792
41.6261
41.6276
41.6382
41.6577
41.6853
41.7199
41.7615
41.7985
41.8978
41.7783
42.0572
41.8943
41.996
-0.0388922
0.0674104
-0.270652
-0.0120213
-0.104989
-0.0905187
-0.0745293
-0.0598014
-0.0456748
-0.0321
-0.0194167
-0.00660958
41.622
41.6245
41.6354
41.6551
41.6826
41.7173
41.759
41.7965
41.8944
41.7779
42.0537
41.8931
41.9957
-0.0412404
0.0658725
-0.273292
-0.0142117
-0.107232
-0.092526
-0.0762313
-0.061188
-0.0467469
-0.0328611
-0.0198712
-0.0067605
41.6177
41.6207
41.6319
41.6516
41.6791
41.7138
41.7557
41.7938
41.89
41.7772
42.0495
41.8917
41.9951
-0.0445467
0.0611699
-0.277323
-0.0177071
-0.110287
-0.0951748
-0.0784701
-0.0630113
-0.0481563
-0.0338616
-0.0204685
-0.00695863
41.6131
41.6163
41.6277
41.6473
41.6747
41.7094
41.7515
41.7903
41.8845
41.7764
42.0445
41.8901
41.9941
-0.0490519
0.0571209
-0.281902
-0.0218183
-0.114013
-0.0984232
-0.0812161
-0.065247
-0.0498844
-0.0350883
-0.0212007
-0.0072014
41.6081
41.6115
41.6228
41.6423
41.6697
41.7043
41.7465
41.7862
41.8782
41.7757
42.0386
41.8884
41.9931
-0.0547005
0.051347
-0.287339
-0.0266819
-0.118379
-0.102229
-0.0844329
-0.0678647
-0.0519079
-0.0365245
-0.0220579
-0.00748557
41.6029
41.6062
41.6174
41.6368
41.6639
41.6985
41.7408
41.7815
41.871
41.7749
42.0324
41.8867
41.9923
-0.061208
0.0450147
-0.293484
-0.0322144
-0.123326
-0.106542
-0.0880771
-0.070827
-0.0541992
-0.0381506
-0.0230285
-0.00780728
41.5973
41.6006
41.6116
41.6307
41.6576
41.692
41.7345
41.7761
41.8631
41.7732
42.0271
41.8853
41.9918
-0.0685024
0.0379274
-0.300264
-0.0383445
-0.128788
-0.111304
-0.0920998
-0.0740861
-0.0567281
-0.0399434
-0.024099
-0.00816203
41.5915
41.5946
41.6055
41.6242
41.6508
41.685
41.7275
41.7703
41.8547
41.7712
42.0224
41.8844
41.992
-0.0764134
0.0302716
-0.30758
-0.0449722
-0.134691
-0.116454
-0.0964542
-0.0776774
-0.0594697
-0.0418759
-0.0252545
-0.00854482
41.5856
41.5885
41.5991
41.6174
41.6436
41.6776
41.7202
41.764
41.846
41.7695
42.0181
41.8845
41.9932
-0.0848599
0.022129
-0.315332
-0.0520039
-0.140943
-0.121901
-0.101056
-0.0814079
-0.0623695
-0.0439538
-0.0264796
-0.00895012
41.5796
41.5823
41.5925
41.6104
41.6361
41.6699
41.7125
41.7574
41.8373
41.7684
42.0146
41.8857
41.9958
-0.0937047
0.0136289
-0.323403
-0.0593323
-0.147453
-0.127572
-0.105844
-0.0853001
-0.0653792
-0.0460839
-0.0277553
-0.00937192
41.5736
41.5761
41.5859
41.6033
41.6285
41.6619
41.7045
41.7506
41.8288
41.7682
42.0121
41.8886
42.0002
-0.102811
0.00490422
-0.33167
-0.0668456
-0.154124
-0.133382
-0.110748
-0.0892874
-0.0684585
-0.0482676
-0.0290652
-0.00980381
41.5677
41.57
41.5793
41.5961
41.6208
41.6539
41.6966
41.7438
41.8207
41.7688
42.0111
41.8933
42.0068
-0.112046
-0.00391154
-0.340009
-0.0744262
-0.160852
-0.139239
-0.115691
-0.0933061
-0.0715606
-0.0504675
-0.0303776
-0.0102402
41.5621
41.5641
41.5729
41.5892
41.6133
41.6459
41.6887
41.737
41.8133
41.7705
42.0116
41.9002
42.0158
-0.121262
-0.0126744
-0.348283
-0.0819523
-0.16753
-0.145049
-0.120593
-0.0972917
-0.0746366
-0.0526485
-0.0316782
-0.010675
41.5567
41.5584
41.5668
41.5824
41.6059
41.6382
41.681
41.7305
41.8068
41.7733
42.014
41.9094
42.0274
-0.130307
-0.0212439
-0.356356
-0.0893034
-0.174048
-0.150719
-0.125376
-0.101179
-0.0776366
-0.0547752
-0.0329461
-0.0110947
41.5518
41.5532
41.561
41.5761
41.599
41.6309
41.6737
41.7244
41.8012
41.7771
42.0182
41.9209
42.0417
-0.139025
-0.0294842
-0.364096
-0.0963584
-0.180297
-0.156153
-0.129959
-0.104904
-0.0805109
-0.0568122
-0.0341604
-0.0114965
41.5473
41.5484
41.5557
41.5702
41.5925
41.624
41.6669
41.7189
41.7967
41.7819
42.024
41.9344
42.0583
-0.147285
-0.0372495
-0.371365
-0.102997
-0.18617
-0.16126
-0.134266
-0.108404
-0.0832108
-0.0587252
-0.0353006
-0.0118737
41.5435
41.5443
41.551
41.5648
41.5866
41.6177
41.6607
41.7139
41.7931
41.7874
42.0313
41.9496
42.0768
-0.154946
-0.044452
-0.37804
-0.109112
-0.191566
-0.165952
-0.138222
-0.111618
-0.0856893
-0.0604817
-0.0363475
-0.01222
41.5404
41.5407
41.5469
41.5601
41.5814
41.6122
41.6553
41.7096
41.7904
41.7933
42.0396
41.9655
42.0964
-0.161882
-0.0508725
-0.383992
-0.114585
-0.196387
-0.170146
-0.141756
-0.114489
-0.087904
-0.0620508
-0.0372826
-0.0125294
41.5381
41.5379
41.5435
41.5561
41.5769
41.6075
41.6507
41.7061
41.7886
41.7992
42.0481
41.9811
42.1157
-0.167969
-0.0566289
-0.38913
-0.119362
-0.200555
-0.173768
-0.144808
-0.116968
-0.0898153
-0.0634045
-0.0380893
-0.0127963
41.5367
41.5358
41.5408
41.5529
41.5733
41.6036
41.647
41.7033
41.7874
41.8046
42.0563
41.9953
42.1337
-0.17312
-0.0612441
-0.393327
-0.123266
-0.203979
-0.176748
-0.147321
-0.119009
-0.0913886
-0.0645188
-0.0387532
-0.0130159
41.5365
41.5346
41.5388
41.5505
41.5706
41.6007
41.6442
41.7012
41.7867
41.8091
42.0634
42.0073
42.1493
-0.177267
-0.0652322
-0.396542
-0.126384
-0.20662
-0.179041
-0.149251
-0.120575
-0.0925961
-0.0653738
-0.0392624
-0.0131841
41.5366
41.5339
41.5375
41.549
41.5688
41.5988
41.6424
41.6999
41.7863
41.8124
42.0688
42.0164
42.1612
-0.180357
-0.0676628
-0.39868
-0.128425
-0.208402
-0.180588
-0.150559
-0.121638
-0.0934149
-0.0659537
-0.0396075
-0.0132979
41.5419
41.5343
41.537
41.5483
41.568
41.598
41.6416
41.6994
41.7863
41.8141
42.0734
42.0214
42.1687
-0.182364
-0.0698752
-0.399658
-0.129649
-0.20932
-0.181376
-0.151227
-0.122179
-0.0938315
-0.0662486
-0.0397821
-0.0133546
41.6306
41.6279
41.6376
41.6569
41.6843
41.7188
41.7601
41.7966
41.8964
41.7744
42.0596
41.8929
41.9934
-0.0391186
0.0668641
-0.269179
-0.0119565
-0.103314
-0.0890638
-0.0730091
-0.0583145
-0.0443362
-0.0310175
-0.0186889
-0.00633389
41.6244
41.6261
41.6366
41.6561
41.6835
41.718
41.7594
41.7961
41.8953
41.7753
42.0543
41.8915
41.9934
-0.0393596
0.0673751
-0.270321
-0.0124722
-0.10404
-0.0897572
-0.0735903
-0.0587892
-0.0447042
-0.0312788
-0.018846
-0.00638791
41.621
41.6237
41.6347
41.6542
41.6817
41.7162
41.7577
41.7947
41.893
41.7755
42.0511
41.8901
41.9935
-0.0408966
0.064507
-0.272551
-0.0145518
-0.105748
-0.0911637
-0.074767
-0.0597455
-0.0454429
-0.0318028
-0.019159
-0.00649189
41.6169
41.6205
41.6319
41.6515
41.6789
41.7134
41.7551
41.7926
41.8894
41.7751
42.047
41.8887
41.9931
-0.0433248
0.0628425
-0.275318
-0.0168632
-0.108071
-0.0932299
-0.0765158
-0.0611685
-0.0465419
-0.0325825
-0.0196243
-0.00664627
41.6126
41.6167
41.6283
41.6479
41.6753
41.7098
41.7515
41.7896
41.8846
41.7743
42.042
41.887
41.9922
-0.046751
0.0580475
-0.279435
-0.0204394
-0.111216
-0.0959573
-0.0788172
-0.0630403
-0.0479873
-0.0336076
-0.0202359
-0.00684902
41.6079
41.6123
41.624
41.6436
41.6708
41.7053
41.7471
41.7859
41.8787
41.7733
42.0361
41.8849
41.9909
-0.051442
0.0537512
-0.284192
-0.0247003
-0.115059
-0.0993021
-0.0816406
-0.0653364
-0.0497601
-0.034865
-0.0209859
-0.00709753
41.603
41.6074
41.6191
41.6385
41.6656
41.7
41.7418
41.7814
41.8718
41.7723
42.029
41.8827
41.9894
-0.0572824
0.0478238
-0.289814
-0.029732
-0.119563
-0.103223
-0.0849496
-0.0680264
-0.0518367
-0.0363377
-0.0218643
-0.00738853
41.5976
41.6021
41.6136
41.6329
41.6597
41.6939
41.7357
41.7761
41.8639
41.7704
42.0221
41.8802
41.9878
-0.0640084
0.0412362
-0.296176
-0.035457
-0.124669
-0.107667
-0.0886996
-0.0710739
-0.054189
-0.0380059
-0.0228593
-0.00771809
41.592
41.5964
41.6077
41.6267
41.6532
41.6871
41.729
41.7702
41.8552
41.7673
42.0158
41.8779
41.9864
-0.0715356
0.0338982
-0.303197
-0.0417973
-0.130307
-0.112571
-0.0928395
-0.0744388
-0.0567854
-0.0398467
-0.0239571
-0.00808165
41.5862
41.5904
41.6015
41.62
41.6461
41.6798
41.7215
41.7636
41.8459
41.7643
42.0094
41.8758
41.9854
-0.079741
0.0259375
-0.310781
-0.0486632
-0.136412
-0.117893
-0.0973256
-0.0780917
-0.059594
-0.0418355
-0.0251423
-0.00847408
41.5802
41.5842
41.5949
41.613
41.6387
41.672
41.7136
41.7565
41.8361
41.7614
42.0031
41.8744
41.9851
-0.0884802
0.0174784
-0.318819
-0.0559467
-0.142874
-0.123513
-0.102067
-0.0819497
-0.0625868
-0.0439545
-0.0263982
-0.00888974
41.5742
41.5779
41.5883
41.6058
41.6309
41.6638
41.7053
41.749
41.8262
41.759
41.9972
41.8739
41.9859
-0.0976362
0.00864509
-0.327193
-0.0635417
-0.149609
-0.129369
-0.107006
-0.085962
-0.0656821
-0.0461506
-0.0277057
-0.00932259
41.5681
41.5716
41.5815
41.5985
41.623
41.6554
41.6967
41.7412
41.8164
41.757
41.9922
41.8748
41.9882
-0.107069
-0.00042556
-0.335777
-0.0713316
-0.156514
-0.135372
-0.112066
-0.0900712
-0.0688504
-0.0483979
-0.0290592
-0.0097668
41.5622
41.5654
41.5748
41.5912
41.615
41.6469
41.6879
41.7332
41.8069
41.7558
41.9884
41.8772
41.9923
-0.116635
-0.00959207
-0.344439
-0.0791952
-0.163482
-0.141427
-0.117168
-0.0942138
-0.0720442
-0.0506616
-0.0304071
-0.0102149
41.5565
41.5594
41.5683
41.584
41.6072
41.6385
41.6793
41.7253
41.798
41.7555
41.9861
41.8816
41.9987
-0.12618
-0.018709
-0.353038
-0.0870064
-0.170402
-0.147438
-0.122232
-0.0983252
-0.0752133
-0.0529066
-0.0317441
-0.0106618
41.551
41.5537
41.5621
41.5771
41.5995
41.6302
41.6708
41.7176
41.7899
41.7561
41.9854
41.8882
42.0076
-0.135552
-0.0276277
-0.361435
-0.0946384
-0.177159
-0.153306
-0.127175
-0.102338
-0.078306
-0.0550967
-0.0330486
-0.0110934
41.546
41.5484
41.5562
41.5705
41.5923
41.6224
41.6627
41.7103
41.7827
41.7578
41.9867
41.8972
42.0191
-0.144593
-0.0362043
-0.369486
-0.101966
-0.183642
-0.158935
-0.131915
-0.106185
-0.0812702
-0.0571955
-0.0342987
-0.0115068
41.5415
41.5436
41.5508
41.5645
41.5855
41.615
41.6552
41.7035
41.7765
41.7605
41.9897
41.9082
42.033
-0.153159
-0.0442911
-0.377053
-0.108864
-0.189737
-0.164226
-0.13637
-0.1098
-0.0840556
-0.0591676
-0.0354733
-0.0118952
41.5376
41.5393
41.546
41.559
41.5793
41.6083
41.6483
41.6974
41.7714
41.7639
41.9943
41.9209
42.0488
-0.161108
-0.05179
-0.384003
-0.115219
-0.195339
-0.169089
-0.140464
-0.113121
-0.0866145
-0.0609785
-0.0365519
-0.0122519
41.5345
41.5357
41.5418
41.5541
41.5738
41.6024
41.6422
41.6921
41.7674
41.7678
42.0001
41.9345
42.0657
-0.1683
-0.0584819
-0.390205
-0.120909
-0.200346
-0.173437
-0.144123
-0.11609
-0.0889011
-0.0625972
-0.0375159
-0.0125707
41.5321
41.5329
41.5383
41.55
41.5691
41.5973
41.637
41.6877
41.7643
41.772
42.0063
41.9483
42.0827
-0.174622
-0.0644675
-0.395559
-0.125872
-0.204678
-0.177194
-0.147284
-0.118653
-0.0908753
-0.0639943
-0.038348
-0.0128458
41.5307
41.5308
41.5355
41.5467
41.5653
41.5931
41.6328
41.6841
41.762
41.776
42.0125
41.9607
42.0988
-0.179963
-0.0692844
-0.399936
-0.129933
-0.208236
-0.180285
-0.149887
-0.120764
-0.0925009
-0.0651445
-0.0390327
-0.0130721
41.5305
41.5294
41.5335
41.5442
41.5625
41.59
41.6296
41.6814
41.7604
41.7794
42.0181
41.9712
42.1128
-0.184263
-0.0734233
-0.403292
-0.13317
-0.210981
-0.182665
-0.151886
-0.122385
-0.0937488
-0.0660273
-0.0395581
-0.0132456
41.5306
41.5288
41.5322
41.5426
41.5606
41.5879
41.6275
41.6797
41.7595
41.7819
42.0223
41.9791
42.1234
-0.187464
-0.0759654
-0.405525
-0.135295
-0.212833
-0.184271
-0.153242
-0.123484
-0.094595
-0.066626
-0.0399143
-0.013363
41.5358
41.5292
41.5317
41.5419
41.5597
41.587
41.6266
41.679
41.7592
41.7832
42.0262
41.9827
42.1299
-0.189537
-0.0782543
-0.406555
-0.136557
-0.213789
-0.185088
-0.153935
-0.124045
-0.0950257
-0.0669306
-0.0400947
-0.0134216
41.6243
41.6224
41.6325
41.6518
41.679
41.7133
41.7545
41.7911
41.8895
41.7696
42.0523
41.8876
41.9888
-0.0430121
0.0629686
-0.271537
-0.0155548
-0.104238
-0.0898042
-0.0731743
-0.0580728
-0.043864
-0.0304811
-0.0182447
-0.00613636
41.6181
41.6206
41.6315
41.6509
41.6781
41.7124
41.7537
41.7905
41.8883
41.7706
42.0464
41.8861
41.9888
-0.0432864
0.0634268
-0.272822
-0.0161325
-0.105005
-0.0905301
-0.0737797
-0.0585658
-0.0442452
-0.0307513
-0.0184068
-0.00619172
41.6147
41.6182
41.6295
41.649
41.6762
41.7105
41.7519
41.789
41.8857
41.7707
42.0427
41.8844
41.9889
-0.0448783
0.0604606
-0.275116
-0.0182769
-0.106774
-0.0919932
-0.0750031
-0.0595584
-0.0450108
-0.0312937
-0.0187304
-0.00629914
41.6105
41.615
41.6266
41.6462
41.6734
41.7077
41.749
41.7866
41.8817
41.7702
42.0378
41.8827
41.9883
-0.0474497
0.0586026
-0.278048
-0.020744
-0.109209
-0.0941468
-0.0768222
-0.0610361
-0.0461503
-0.032101
-0.0192117
-0.00645867
41.6062
41.6111
41.623
41.6425
41.6696
41.7038
41.7452
41.7833
41.8765
41.7691
42.0318
41.8804
41.9869
-0.0510637
0.0536512
-0.28232
-0.024471
-0.112494
-0.0969921
-0.0792175
-0.0629806
-0.0476495
-0.033163
-0.0198447
-0.0066683
41.6015
41.6066
41.6186
41.638
41.665
41.699
41.7404
41.7791
41.8699
41.7678
42.0245
41.8776
41.985
-0.0560558
0.0490063
-0.287329
-0.028948
-0.116512
-0.100482
-0.0821574
-0.0653672
-0.0494892
-0.0344662
-0.0206213
-0.0069254
41.5964
41.6016
41.6136
41.6328
41.6595
41.6934
41.7347
41.774
41.8622
41.7658
42.0162
41.8744
41.9825
-0.0621913
0.0428151
-0.293236
-0.0342333
-0.121226
-0.104576
-0.0856049
-0.068165
-0.0516453
-0.0359936
-0.0215314
-0.00722661
41.5911
41.5962
41.608
41.627
41.6534
41.6869
41.7281
41.768
41.8533
41.7621
42.0084
41.8708
41.9797
-0.0692652
0.0358544
-0.299926
-0.040249
-0.126573
-0.109219
-0.0895148
-0.0713373
-0.0540886
-0.0377248
-0.0225629
-0.00756794
41.5854
41.5904
41.602
41.6206
41.6465
41.6797
41.7207
41.7612
41.8434
41.7577
42
41.8669
41.9766
-0.0771574
0.0281128
-0.307315
-0.0469115
-0.132483
-0.114351
-0.0938349
-0.0748419
-0.056784
-0.0396364
-0.0237016
-0.00794472
41.5795
41.5844
41.5956
41.6137
41.6392
41.6719
41.7125
41.7535
41.8327
41.7531
41.991
41.8628
41.9734
-0.0858783
0.0196973
-0.315303
-0.0541375
-0.13888
-0.119905
-0.0985095
-0.0786349
-0.0596857
-0.0417032
-0.0249315
-0.00835166
41.5734
41.5781
41.5889
41.6065
41.6313
41.6635
41.7037
41.7452
41.8213
41.7484
41.9816
41.8589
41.9704
-0.0950503
0.0107555
-0.32378
-0.0618038
-0.145665
-0.125796
-0.103469
-0.082667
-0.0628447
-0.0439018
-0.026234
-0.00878292
41.5673
41.5717
41.582
41.599
41.6232
41.6547
41.6944
41.7363
41.8095
41.7436
41.9723
41.8552
41.9678
-0.104701
0.00141317
-0.332617
-0.0698036
-0.152741
-0.131935
-0.108634
-0.0868555
-0.0660551
-0.0461889
-0.0275855
-0.00923232
41.5612
41.5653
41.5751
41.5915
41.6148
41.6456
41.6848
41.7269
41.7976
41.739
41.9632
41.8523
41.966
-0.114649
-0.00818554
-0.341683
-0.0780148
-0.160002
-0.13823
-0.11393
-0.0911482
-0.0693564
-0.0485311
-0.0290132
-0.00969497
41.5551
41.559
41.5683
41.5839
41.6064
41.6364
41.675
41.7173
41.7859
41.7349
41.955
41.8506
41.9654
-0.124745
-0.0178915
-0.350837
-0.0863095
-0.167335
-0.144587
-0.119275
-0.095479
-0.0726889
-0.0508908
-0.0304096
-0.0101608
41.5493
41.5529
41.5616
41.5764
41.5981
41.6273
41.6651
41.7076
41.7745
41.7313
41.948
41.8505
41.9667
-0.134827
-0.0275499
-0.359935
-0.0945544
-0.174623
-0.150903
-0.124584
-0.0997808
-0.0759988
-0.0532325
-0.0318013
-0.0106259
41.5438
41.547
41.5552
41.5692
41.59
41.6183
41.6555
41.698
41.7638
41.7286
41.9425
41.8523
41.97
-0.14473
-0.0370031
-0.368823
-0.102616
-0.181745
-0.157074
-0.12977
-0.103983
-0.0792315
-0.0555185
-0.0331613
-0.0110754
41.5387
41.5416
41.5491
41.5624
41.5823
41.6097
41.6462
41.6889
41.754
41.7267
41.9388
41.8565
41.9758
-0.154284
-0.0460986
-0.377353
-0.110359
-0.188584
-0.162996
-0.134747
-0.108013
-0.0823322
-0.0577108
-0.0344656
-0.0115064
41.5342
41.5367
41.5436
41.556
41.575
41.6016
41.6375
41.6803
41.7453
41.7258
41.9371
41.8629
41.984
-0.163346
-0.0546778
-0.385374
-0.117653
-0.195017
-0.168568
-0.139428
-0.111804
-0.0852479
-0.0597719
-0.035692
-0.0119116
41.5302
41.5323
41.5386
41.5503
41.5684
41.5942
41.6296
41.6725
41.7378
41.7257
41.937
41.8709
41.9944
-0.171751
-0.0626306
-0.392748
-0.124375
-0.200935
-0.173691
-0.143732
-0.115288
-0.0879279
-0.0616663
-0.0368192
-0.0122841
41.527
41.5287
41.5342
41.5452
41.5626
41.5877
41.6225
41.6657
41.7315
41.7265
41.9385
41.8796
42.0063
-0.179357
-0.0697369
-0.39933
-0.130395
-0.206227
-0.178275
-0.147582
-0.118405
-0.0903241
-0.0633601
-0.037827
-0.0126171
41.5246
41.5257
41.5306
41.5409
41.5576
41.582
41.6164
41.6598
41.7264
41.7277
41.9409
41.8884
42.0187
-0.186046
-0.0760749
-0.405016
-0.135645
-0.210806
-0.182238
-0.150908
-0.121097
-0.0923939
-0.0648228
-0.0386972
-0.0129046
41.5231
41.5236
41.5278
41.5374
41.5535
41.5774
41.6115
41.6551
41.7224
41.7293
41.9436
41.897
42.0306
-0.191695
-0.081194
-0.409669
-0.139947
-0.214571
-0.185498
-0.153648
-0.123315
-0.0940989
-0.0660275
-0.0394138
-0.0131413
41.5228
41.5222
41.5257
41.5348
41.5504
41.574
41.6077
41.6515
41.7195
41.7308
41.9463
41.9043
42.041
-0.196241
-0.0855551
-0.413238
-0.143365
-0.217475
-0.18801
-0.155754
-0.125019
-0.095408
-0.0669524
-0.0399639
-0.0133228
41.5229
41.5215
41.5243
41.5331
41.5484
41.5716
41.6052
41.6492
41.7175
41.732
41.9481
41.91
42.049
-0.199607
-0.0882619
-0.415614
-0.145619
-0.219435
-0.189706
-0.157182
-0.126175
-0.0962963
-0.06758
-0.0403369
-0.0134457
41.5281
41.5219
41.5238
41.5323
41.5475
41.5706
41.6041
41.6482
41.7167
41.733
41.9498
41.9136
42.0536
-0.201783
-0.0906277
-0.416718
-0.146938
-0.220447
-0.190568
-0.157911
-0.126764
-0.0967483
-0.0678995
-0.0405261
-0.0135072
41.6169
41.6156
41.6258
41.645
41.6719
41.7059
41.747
41.7838
41.8803
41.7631
42.0428
41.8805
41.9823
-0.0484203
0.0576602
-0.274601
-0.0203357
-0.105401
-0.0906634
-0.0732805
-0.0576533
-0.043156
-0.0297078
-0.0176152
-0.0058593
41.6108
41.6137
41.6247
41.644
41.671
41.705
41.7461
41.7831
41.8789
41.7641
42.0365
41.8788
41.9823
-0.0487368
0.0580572
-0.275909
-0.0209837
-0.10622
-0.0914296
-0.0739175
-0.0581703
-0.0435548
-0.0299898
-0.017784
-0.0059165
41.6073
41.6113
41.6227
41.6421
41.669
41.703
41.7441
41.7813
41.876
41.7641
42.0321
41.8768
41.9821
-0.0504297
0.0549547
-0.278348
-0.0232219
-0.108073
-0.0929703
-0.0752035
-0.0592114
-0.0443561
-0.0305566
-0.0181216
-0.00602844
41.6032
41.608
41.6198
41.6392
41.6661
41.7
41.741
41.7786
41.8716
41.7633
42.0263
41.8746
41.9811
-0.0531909
0.0528373
-0.281502
-0.0258927
-0.110659
-0.0952426
-0.0771168
-0.0607618
-0.0455494
-0.0314006
-0.0186241
-0.00619479
41.5987
41.604
41.616
41.6354
41.6621
41.6959
41.7368
41.7748
41.8657
41.7619
42.0189
41.8716
41.9791
-0.0570771
0.0476642
-0.286007
-0.0298353
-0.114131
-0.0982445
-0.0796372
-0.0628031
-0.0471201
-0.0325116
-0.0192855
-0.00641354
41.594
41.5995
41.6116
41.6307
41.6572
41.6907
41.7315
41.77
41.8583
41.7599
42.01
41.8678
41.9762
-0.0624635
0.0425696
-0.291349
-0.0346009
-0.118386
-0.101929
-0.0827326
-0.0653102
-0.0490489
-0.0338758
-0.0200974
-0.006682
41.5889
41.5945
41.6064
41.6253
41.6515
41.6847
41.7252
41.7641
41.8495
41.7559
42.0009
41.8632
41.9724
-0.0690263
0.0359925
-0.297642
-0.0402288
-0.123381
-0.106254
-0.0863653
-0.0682515
-0.0513112
-0.0354759
-0.0210497
-0.00699678
41.5834
41.5889
41.6007
41.6193
41.645
41.6777
41.7179
41.7571
41.8393
41.7505
41.991
41.8578
41.9677
-0.0765906
0.0285322
-0.304776
-0.0466379
-0.129053
-0.111165
-0.0904888
-0.0715892
-0.0538775
-0.037291
-0.0221299
-0.00735378
41.5777
41.583
41.5945
41.6126
41.6378
41.67
41.7096
41.7491
41.8278
41.7444
41.9798
41.8516
41.962
-0.0850317
0.0202407
-0.312664
-0.0537419
-0.135328
-0.116597
-0.0950486
-0.0752785
-0.0567134
-0.039297
-0.0233234
-0.00774821
41.5717
41.5768
41.5879
41.6055
41.63
41.6615
41.7005
41.7401
41.8151
41.7376
41.9672
41.8444
41.9554
-0.0943616
0.0111995
-0.3212
-0.0614453
-0.142123
-0.122477
-0.0999827
-0.079267
-0.0597819
-0.0414669
-0.0246138
-0.00817463
41.5655
41.5704
41.581
41.598
41.6217
41.6523
41.6906
41.7301
41.8016
41.7302
41.9537
41.8365
41.9479
-0.104195
0.0016051
-0.330274
-0.0696344
-0.149347
-0.128728
-0.105235
-0.0835344
-0.06306
-0.0437713
-0.0259826
-0.00862704
41.5593
41.5639
41.574
41.5902
41.613
41.6427
41.6801
41.7193
41.7872
41.7222
41.9393
41.8279
41.9398
-0.114537
-0.00843024
-0.339739
-0.0781858
-0.156884
-0.135246
-0.110703
-0.0879558
-0.0664668
-0.0461876
-0.0274103
-0.00909905
41.553
41.5574
41.5669
41.5822
41.6041
41.6328
41.6691
41.7079
41.7724
41.7139
41.9246
41.8192
41.9314
-0.12521
-0.0187503
-0.34946
-0.0869704
-0.164627
-0.14194
-0.116317
-0.0924949
-0.0699547
-0.0486524
-0.0288935
-0.0095845
41.5469
41.5509
41.5598
41.5743
41.5951
41.6227
41.6578
41.696
41.7574
41.7055
41.9099
41.8109
41.9231
-0.136047
-0.029193
-0.359288
-0.0958515
-0.172455
-0.148705
-0.12199
-0.0970798
-0.0734758
-0.0511406
-0.0303715
-0.0100745
41.541
41.5446
41.5529
41.5665
41.5862
41.6125
41.6464
41.6839
41.7425
41.6971
41.8959
41.8037
41.9157
-0.146879
-0.0395931
-0.369064
-0.104687
-0.180243
-0.155434
-0.127631
-0.101639
-0.0769761
-0.0536123
-0.0318404
-0.0105644
41.5354
41.5387
41.5462
41.5589
41.5775
41.6026
41.6352
41.6719
41.7282
41.6892
41.8831
41.798
41.9098
-0.157523
-0.0497791
-0.378626
-0.113334
-0.187863
-0.162015
-0.133147
-0.106096
-0.0803973
-0.0560279
-0.033276
-0.0110382
41.5302
41.5331
41.54
41.5517
41.5692
41.593
41.6244
41.6602
41.7148
41.682
41.8719
41.7943
41.906
-0.167805
-0.0595862
-0.387811
-0.121646
-0.195185
-0.168337
-0.138444
-0.110376
-0.0836825
-0.0583468
-0.0346541
-0.0114931
41.5255
41.528
41.5342
41.545
41.5614
41.584
41.6141
41.6493
41.7026
41.6758
41.8628
41.7916
41.9046
-0.17755
-0.0688394
-0.396456
-0.129479
-0.202081
-0.17429
-0.143432
-0.114405
-0.0867745
-0.0605287
-0.0359508
-0.0119211
41.5215
41.5236
41.529
41.539
41.5543
41.5757
41.6048
41.6392
41.6917
41.6706
41.8556
41.7907
41.9055
-0.186598
-0.0774151
-0.404409
-0.136702
-0.208428
-0.179769
-0.148022
-0.118111
-0.0896186
-0.0625354
-0.0371434
-0.0123147
41.5181
41.5198
41.5245
41.5336
41.5479
41.5684
41.5964
41.6302
41.6822
41.6666
41.8503
41.7912
41.9082
-0.194788
-0.0850899
-0.411513
-0.143175
-0.214109
-0.184674
-0.15213
-0.121429
-0.0921636
-0.0643309
-0.0382104
-0.0126669
41.5157
41.5168
41.5208
41.529
41.5425
41.562
41.5891
41.6225
41.6743
41.6635
41.8464
41.7927
41.9121
-0.201989
-0.0919117
-0.417655
-0.148817
-0.219027
-0.188917
-0.155682
-0.124296
-0.0943626
-0.0658823
-0.0391322
-0.0129712
41.5142
41.5145
41.5178
41.5254
41.5381
41.5568
41.5832
41.6162
41.6679
41.6613
41.8436
41.7945
41.9161
-0.208068
-0.0974454
-0.422685
-0.153446
-0.223073
-0.19241
-0.158609
-0.126659
-0.0961756
-0.0671611
-0.039892
-0.0132219
41.5139
41.5131
41.5156
41.5226
41.5347
41.5529
41.5787
41.6114
41.663
41.6599
41.8416
41.7961
41.9196
-0.212952
-0.102111
-0.426546
-0.157114
-0.226195
-0.195101
-0.16086
-0.128476
-0.0975683
-0.0681434
-0.0404755
-0.0134143
41.5139
41.5124
41.5142
41.5208
41.5325
41.5503
41.5757
41.6082
41.6597
41.6592
41.8397
41.7972
41.9218
-0.216556
-0.105043
-0.42912
-0.159541
-0.228303
-0.19692
-0.162386
-0.129708
-0.0985135
-0.06881
-0.0408714
-0.0135446
41.5191
41.5128
41.5136
41.52
41.5315
41.549
41.5743
41.6068
41.6581
41.6593
41.8389
41.7975
41.9227
-0.218884
-0.107517
-0.430328
-0.160943
-0.229391
-0.197843
-0.163166
-0.130337
-0.0989947
-0.0691497
-0.0410725
-0.0136101
41.6086
41.6074
41.6176
41.6366
41.6632
41.6969
41.7376
41.7746
41.8688
41.755
42.0311
41.8715
41.974
-0.0553145
0.0509442
-0.278246
-0.026317
-0.106814
-0.0915902
-0.0732815
-0.0570175
-0.0421825
-0.0286767
-0.0167881
-0.00549862
41.6024
41.6055
41.6165
41.6356
41.6623
41.6959
41.7366
41.7738
41.8673
41.7559
42.0244
41.8697
41.9739
-0.0556907
0.0512611
-0.279601
-0.0270515
-0.107698
-0.0924059
-0.0739576
-0.0575643
-0.042603
-0.0289732
-0.0169651
-0.00555819
41.5989
41.6031
41.6145
41.6336
41.6602
41.6937
41.7344
41.7718
41.8641