/*--------------------------------*- C++ -*----------------------------------*\
| =========                 |                                                 |
| \\      /  F ield         | OpenFOAM: The Open Source CFD Toolbox           |
|  \\    /   O peration     | Version:  2306                                  |
|   \\  /    A nd           | Website:  www.openfoam.com                      |
|    \\/     M anipulation  |                                                 |
\*---------------------------------------------------------------------------*/
FoamFile
{
    version     2.0;
    format      ascii;
    arch        "LSB;label=32;scalar=64";
    class       volScalarField;
    location    "1.7";
    object      p;
}
// * * * * * * * * * * * * * * * * * * * * * * * * * * * * * * * * * * * * * //

dimensions      [0 2 -2 0 0 0 0];

internalField   nonuniform List<scalar> 
288632
(
43.1243
43.1158
43.1244
43.1436
43.1709
43.2053
43.247
43.2809
43.3859
43.282
43.5288
43.4005
43.4852
-0.158446
-0.0609098
-0.351113
-0.103537
-0.191234
-0.161948
-0.136223
-0.111087
-0.085998
-0.0611001
-0.0368622
-0.0124337
43.1179
43.1141
43.1234
43.1427
43.1701
43.2045
43.2464
43.2804
43.385
43.2816
43.5279
43.3994
43.485
-0.158858
-0.0602977
-0.352217
-0.103879
-0.191998
-0.162659
-0.136823
-0.111579
-0.0863796
-0.0613712
-0.0370253
-0.0124893
43.1147
43.1118
43.1216
43.141
43.1684
43.2029
43.2448
43.2792
43.383
43.2814
43.5262
43.3982
43.4849
-0.160747
-0.0641274
-0.354392
-0.105878
-0.193685
-0.16411
-0.138041
-0.11257
-0.087146
-0.0619156
-0.0373507
-0.0125974
43.1106
43.1087
43.1189
43.1383
43.1658
43.2003
43.2423
43.2773
43.3799
43.2809
43.5233
43.3973
43.4846
-0.163298
-0.0642563
-0.357307
-0.108354
-0.196104
-0.166238
-0.139848
-0.114044
-0.0882865
-0.0627255
-0.0378345
-0.0127582
43.1064
43.105
43.1154
43.1349
43.1623
43.1969
43.239
43.2747
43.3757
43.2801
43.5196
43.3961
43.484
-0.166484
-0.0693961
-0.361342
-0.112016
-0.199357
-0.169054
-0.142228
-0.115983
-0.0897862
-0.0637904
-0.0384704
-0.0129692
43.1018
43.1007
43.1112
43.1307
43.1581
43.1927
43.2349
43.2715
43.3707
43.2792
43.5152
43.3947
43.4832
-0.17122
-0.073973
-0.366253
-0.116343
-0.203312
-0.172504
-0.145147
-0.118362
-0.0916253
-0.0650961
-0.0392498
-0.0132277
43.097
43.096
43.1065
43.1259
43.1532
43.1877
43.23
43.2676
43.3647
43.2783
43.5101
43.3932
43.4823
-0.177237
-0.0801521
-0.372044
-0.121503
-0.207953
-0.176547
-0.148566
-0.121147
-0.0937789
-0.0666249
-0.0401624
-0.0135303
43.0918
43.0908
43.1013
43.1205
43.1476
43.182
43.2245
43.2631
43.358
43.2773
43.5046
43.3918
43.4816
-0.184187
-0.0869036
-0.378578
-0.127357
-0.21321
-0.181129
-0.15244
-0.124302
-0.0962174
-0.0683558
-0.0411955
-0.0138728
43.0864
43.0853
43.0956
43.1146
43.1415
43.1758
43.2184
43.2581
43.3506
43.2764
43.499
43.3907
43.4813
-0.191931
-0.0944083
-0.385781
-0.133833
-0.219011
-0.186186
-0.156713
-0.127782
-0.0989066
-0.0702644
-0.0423345
-0.0142503
43.0807
43.0795
43.0896
43.1083
43.1349
43.1691
43.2117
43.2527
43.3428
43.2747
43.4944
43.3902
43.4817
-0.200353
-0.102525
-0.393547
-0.140835
-0.225273
-0.191644
-0.161325
-0.131536
-0.101808
-0.0723233
-0.0435632
-0.0146575
43.0749
43.0736
43.0833
43.1017
43.1279
43.1619
43.2047
43.247
43.3347
43.2725
43.4914
43.3907
43.4831
-0.209326
-0.11114
-0.401767
-0.148259
-0.231906
-0.197425
-0.166208
-0.135511
-0.104879
-0.0745026
-0.0448636
-0.0150885
43.0691
43.0675
43.0769
43.0949
43.1207
43.1545
43.1974
43.241
43.3265
43.2712
43.4888
43.3923
43.486
-0.218712
-0.120123
-0.410321
-0.155993
-0.238811
-0.203441
-0.17129
-0.139647
-0.108074
-0.0767695
-0.0462162
-0.0155368
43.0632
43.0615
43.0705
43.0879
43.1133
43.1469
43.1899
43.2349
43.3185
43.2706
43.4872
43.3954
43.4906
-0.228376
-0.129335
-0.419076
-0.163918
-0.245884
-0.209602
-0.176493
-0.143881
-0.111344
-0.0790894
-0.0476004
-0.0159954
43.0575
43.0555
43.0641
43.0811
43.1059
43.1392
43.1824
43.2289
43.3109
43.271
43.487
43.4005
43.4974
-0.23816
-0.138631
-0.4279
-0.17191
-0.253012
-0.215811
-0.181735
-0.148147
-0.114638
-0.081426
-0.0489943
-0.0164574
43.052
43.0497
43.0579
43.0743
43.0987
43.1317
43.175
43.223
43.304
43.2723
43.4883
43.4076
43.5064
-0.24792
-0.147868
-0.436647
-0.179841
-0.260084
-0.221968
-0.186934
-0.152376
-0.117904
-0.0837419
-0.0503759
-0.0169152
43.0467
43.0443
43.0519
43.0678
43.0916
43.1244
43.1679
43.2173
43.2978
43.2747
43.4914
43.417
43.518
-0.257486
-0.156893
-0.445178
-0.187584
-0.266982
-0.227974
-0.192004
-0.156499
-0.121088
-0.0859999
-0.0517228
-0.0173615
43.0419
43.0392
43.0463
43.0616
43.0849
43.1174
43.1611
43.2121
43.2926
43.2781
43.4962
43.4285
43.532
-0.266711
-0.165562
-0.45335
-0.19501
-0.273593
-0.233728
-0.196861
-0.160449
-0.124137
-0.0881625
-0.0530128
-0.0177889
43.0376
43.0345
43.0412
43.0559
43.0787
43.1109
43.1548
43.2073
43.2882
43.2823
43.5025
43.4419
43.5483
-0.275432
-0.173726
-0.46102
-0.201995
-0.279802
-0.239134
-0.201423
-0.164159
-0.127001
-0.0901929
-0.0542238
-0.0181901
43.0338
43.0305
43.0366
43.0507
43.073
43.1049
43.1491
43.203
43.2848
43.2872
43.5101
43.4567
43.566
-0.283516
-0.181283
-0.46806
-0.208426
-0.285505
-0.244099
-0.205612
-0.167565
-0.12963
-0.0920568
-0.0553354
-0.0185583
43.0308
43.027
43.0326
43.0462
43.068
43.0997
43.1441
43.1993
43.2823
43.2925
43.5185
43.4723
43.5845
-0.290822
-0.188041
-0.474334
-0.214179
-0.290597
-0.248535
-0.209355
-0.170608
-0.131978
-0.0937215
-0.0563281
-0.0188871
43.0286
43.0243
43.0293
43.0423
43.0637
43.0952
43.1398
43.1963
43.2805
43.2977
43.5272
43.4874
43.6026
-0.29724
-0.194029
-0.479749
-0.219188
-0.294997
-0.252367
-0.212585
-0.173234
-0.134005
-0.0951577
-0.0571844
-0.0191707
43.0273
43.0223
43.0267
43.0393
43.0603
43.0915
43.1363
43.1939
43.2794
43.3026
43.5353
43.5011
43.6194
-0.302664
-0.198912
-0.484177
-0.223302
-0.298612
-0.255519
-0.215245
-0.175395
-0.135672
-0.0963397
-0.0578891
-0.0194039
43.0272
43.021
43.0248
43.0369
43.0577
43.0888
43.1337
43.1921
43.2787
43.3067
43.5424
43.5127
43.6338
-0.307019
-0.203006
-0.487565
-0.226546
-0.301394
-0.257944
-0.217287
-0.177055
-0.136952
-0.0972466
-0.0584295
-0.0195826
43.0272
43.0204
43.0235
43.0354
43.0559
43.087
43.132
43.191
43.2784
43.3097
43.5474
43.5214
43.6449
-0.310243
-0.205595
-0.489826
-0.228711
-0.303276
-0.25958
-0.218672
-0.17818
-0.13782
-0.0978616
-0.0587958
-0.0197034
43.0327
43.0208
43.0231
43.0348
43.0552
43.0861
43.1313
43.1906
43.2784
43.3116
43.5509
43.5258
43.6522
-0.312339
-0.207823
-0.490875
-0.229969
-0.304245
-0.260412
-0.21938
-0.178754
-0.138262
-0.0981747
-0.0589814
-0.0197638
43.1173
43.1133
43.1226
43.1419
43.1692
43.2036
43.2453
43.2792
43.3837
43.2801
43.5264
43.3982
43.484
-0.159611
-0.0617014
-0.352479
-0.104917
-0.19184
-0.162565
-0.136554
-0.111215
-0.0859923
-0.061025
-0.036778
-0.0123913
43.111
43.1114
43.1217
43.141
43.1684
43.2028
43.2446
43.2788
43.3828
43.2808
43.5219
43.397
43.4839
-0.159988
-0.0611222
-0.3536
-0.105277
-0.192615
-0.163289
-0.137164
-0.111713
-0.0863789
-0.0612996
-0.0369431
-0.0124477
43.1077
43.1092
43.1198
43.1392
43.1667
43.2011
43.2429
43.2775
43.3807
43.2809
43.5193
43.3958
43.4839
-0.161886
-0.0649166
-0.355817
-0.107313
-0.194332
-0.164762
-0.138398
-0.112717
-0.087155
-0.0618506
-0.0372723
-0.0125568
43.1036
43.1061
43.1171
43.1366
43.164
43.1985
43.2404
43.2755
43.3775
43.2805
43.5158
43.3947
43.4837
-0.164835
-0.0652272
-0.358787
-0.109834
-0.196789
-0.166923
-0.140231
-0.114211
-0.0883099
-0.0626703
-0.0377618
-0.0127194
43.0994
43.1024
43.1136
43.1331
43.1605
43.195
43.237
43.2728
43.3732
43.2797
43.5116
43.3933
43.4831
-0.167735
-0.0704921
-0.362906
-0.11356
-0.200094
-0.169782
-0.142645
-0.116177
-0.0898288
-0.0637484
-0.0384053
-0.0129329
43.0948
43.0981
43.1094
43.1289
43.1562
43.1907
43.2328
43.2694
43.3679
43.2787
43.5066
43.3917
43.4822
-0.172544
-0.0751275
-0.367903
-0.117962
-0.204111
-0.173283
-0.145605
-0.118587
-0.0916917
-0.0650704
-0.0391943
-0.0131945
43.09
43.0933
43.1046
43.1241
43.1512
43.1856
43.2278
43.2654
43.3617
43.2779
43.5007
43.3901
43.4811
-0.178657
-0.0814055
-0.373793
-0.12321
-0.208826
-0.177389
-0.149074
-0.121411
-0.0938737
-0.0666186
-0.0401181
-0.0135007
43.0848
43.0881
43.0993
43.1186
43.1456
43.1799
43.2221
43.2607
43.3546
43.2767
43.4946
43.3884
43.4802
-0.185709
-0.0882753
-0.380441
-0.129166
-0.214169
-0.182041
-0.153004
-0.12461
-0.0963447
-0.0683719
-0.0411642
-0.0138475
43.0793
43.0826
43.0936
43.1126
43.1393
43.1735
43.2158
43.2554
43.3469
43.2744
43.4893
43.3869
43.4797
-0.193564
-0.0959158
-0.387771
-0.135756
-0.220065
-0.187176
-0.157341
-0.128139
-0.0990705
-0.0703056
-0.0423179
-0.0142298
43.0737
43.0768
43.0876
43.1062
43.1326
43.1666
43.2089
43.2497
43.3386
43.2719
43.4846
43.386
43.4797
-0.20211
-0.104184
-0.395679
-0.142882
-0.226432
-0.192722
-0.162023
-0.131948
-0.102012
-0.0723922
-0.0435627
-0.0146422
43.0679
43.0708
43.0813
43.0995
43.1255
43.1592
43.2016
43.2435
43.33
43.2694
43.4804
43.3858
43.4807
-0.211217
-0.112964
-0.404052
-0.150439
-0.233178
-0.198596
-0.166981
-0.135981
-0.105127
-0.0746012
-0.0448804
-0.0150787
43.062
43.0647
43.0748
43.0926
43.1182
43.1516
43.194
43.2371
43.3212
43.2675
43.4769
43.3867
43.483
-0.220749
-0.122121
-0.412767
-0.158314
-0.240203
-0.204712
-0.172143
-0.140179
-0.108368
-0.0768997
-0.0462514
-0.0155329
43.0561
43.0586
43.0683
43.0856
43.1107
43.1438
43.1862
43.2306
43.3126
43.2661
43.4743
43.3891
43.487
-0.230558
-0.131514
-0.42169
-0.166386
-0.247399
-0.210976
-0.177429
-0.144478
-0.111686
-0.0792526
-0.0476548
-0.0159979
43.0503
43.0526
43.0619
43.0787
43.1032
43.1359
43.1784
43.224
43.3044
43.2656
43.473
43.3933
43.4931
-0.240497
-0.140998
-0.430685
-0.174528
-0.254655
-0.21729
-0.182757
-0.14881
-0.115029
-0.081623
-0.0490685
-0.0164662
43.0448
43.0468
43.0556
43.0718
43.0958
43.1281
43.1706
43.2175
43.2967
43.2659
43.4732
43.3995
43.5014
-0.250407
-0.150419
-0.439606
-0.182609
-0.261855
-0.223555
-0.188041
-0.153106
-0.118345
-0.0839733
-0.0504701
-0.0169306
43.0396
43.0413
43.0496
43.0652
43.0886
43.1206
43.1631
43.2113
43.2899
43.2672
43.4751
43.4078
43.5122
-0.260127
-0.159627
-0.448307
-0.1905
-0.268881
-0.229666
-0.193196
-0.157296
-0.121578
-0.0862653
-0.0518369
-0.0173833
43.0347
43.0362
43.0439
43.0589
43.0817
43.1133
43.1559
43.2054
43.2839
43.2695
43.4787
43.4182
43.5255
-0.269491
-0.168473
-0.456645
-0.198071
-0.275615
-0.235523
-0.198136
-0.16131
-0.124676
-0.0884608
-0.053146
-0.0178169
43.0304
43.0315
43.0387
43.0531
43.0753
43.1066
43.1492
43.2001
43.2788
43.2727
43.4839
43.4307
43.5409
-0.278354
-0.176804
-0.464472
-0.205193
-0.281943
-0.241026
-0.202777
-0.165082
-0.127585
-0.0905228
-0.0543754
-0.0182241
43.0266
43.0274
43.0341
43.0479
43.0695
43.1004
43.1432
43.1952
43.2748
43.2766
43.4904
43.4445
43.5581
-0.286567
-0.184515
-0.471658
-0.211749
-0.287755
-0.246082
-0.20704
-0.168545
-0.130257
-0.0924159
-0.0555041
-0.0185979
43.0236
43.0239
43.0301
43.0433
43.0644
43.095
43.1378
43.1911
43.2716
43.2809
43.4978
43.4589
43.576
-0.293992
-0.191413
-0.478062
-0.217617
-0.292946
-0.2506
-0.210849
-0.17164
-0.132644
-0.0941072
-0.0565123
-0.0189317
43.0213
43.0212
43.0267
43.0394
43.06
43.0903
43.1332
43.1876
43.2693
43.2852
43.5055
43.4728
43.5937
-0.300507
-0.19752
-0.483591
-0.222724
-0.297431
-0.254503
-0.214137
-0.174311
-0.134703
-0.0955665
-0.0573821
-0.0192196
43.02
43.0191
43.0241
43.0362
43.0564
43.0865
43.1295
43.1848
43.2677
43.2893
43.5128
43.4858
43.6102
-0.306019
-0.202501
-0.488114
-0.22692
-0.301117
-0.257713
-0.216845
-0.17651
-0.136399
-0.0967677
-0.058098
-0.0194566
43.0199
43.0179
43.0221
43.0339
43.0538
43.0836
43.1268
43.1827
43.2666
43.2928
43.5193
43.4968
43.6243
-0.310441
-0.206667
-0.491575
-0.230227
-0.303954
-0.260184
-0.218924
-0.178198
-0.1377
-0.0976893
-0.0586471
-0.019638
43.0199
43.0172
43.0209
43.0323
43.052
43.0817
43.1249
43.1814
43.266
43.2952
43.5241
43.505
43.6351
-0.31371
-0.209311
-0.493883
-0.232435
-0.305873
-0.26185
-0.220333
-0.179342
-0.138583
-0.0983144
-0.0590192
-0.0197608
43.0254
43.0177
43.0204
43.0316
43.0512
43.0809
43.1241
43.1808
43.2659
43.2965
43.5286
43.5091
43.6418
-0.315836
-0.211547
-0.494957
-0.23371
-0.306858
-0.262695
-0.221053
-0.179926
-0.139032
-0.0986322
-0.0592076
-0.0198221
43.1123
43.1094
43.1191
43.1384
43.1657
43.1999
43.2415
43.2756
43.3792
43.2771
43.5218
43.3943
43.4813
-0.162234
-0.0650366
-0.354884
-0.10758
-0.19281
-0.163512
-0.136979
-0.111268
-0.0858173
-0.060753
-0.0365286
-0.0122741
43.106
43.1076
43.1182
43.1375
43.1648
43.1991
43.2408
43.2751
43.3782
43.278
43.5164
43.393
43.4813
-0.162602
-0.0644862
-0.356033
-0.107944
-0.193594
-0.164256
-0.137605
-0.111779
-0.0862131
-0.0610337
-0.0366972
-0.012332
43.1028
43.1053
43.1163
43.1357
43.163
43.1973
43.2391
43.2738
43.3759
43.2781
43.5134
43.3917
43.4815
-0.164534
-0.0682367
-0.358332
-0.110082
-0.195378
-0.165771
-0.138872
-0.112809
-0.0870082
-0.0615976
-0.0370339
-0.0124428
43.0987
43.1022
43.1135
43.133
43.1603
43.1946
43.2364
43.2716
43.3725
43.2776
43.5093
43.3903
43.4812
-0.167753
-0.0686901
-0.361401
-0.112671
-0.197905
-0.167995
-0.140756
-0.114342
-0.0881917
-0.062437
-0.0375348
-0.0126093
43.0944
43.0984
43.11
43.1295
43.1567
43.191
43.2328
43.2687
43.3678
43.2767
43.5043
43.3886
43.4803
-0.170669
-0.0744293
-0.365701
-0.116534
-0.201316
-0.170939
-0.143237
-0.116359
-0.0897489
-0.0635412
-0.0381934
-0.0128277
43.0898
43.0941
43.1057
43.1252
43.1523
43.1865
43.2284
43.265
43.3621
43.2756
43.4983
43.3866
43.479
-0.175637
-0.0791446
-0.370869
-0.121085
-0.205457
-0.174544
-0.14628
-0.118834
-0.0916594
-0.0648958
-0.0390013
-0.0130955
43.0849
43.0893
43.1009
43.1202
43.1472
43.1813
43.2231
43.2606
43.3553
43.2745
43.4912
43.3844
43.4775
-0.181968
-0.0856034
-0.376956
-0.126511
-0.210321
-0.178772
-0.149848
-0.121734
-0.0938978
-0.0664827
-0.0399476
-0.013409
43.0797
43.084
43.0955
43.1147
43.1414
43.1753
43.2171
43.2554
43.3476
43.272
43.4845
43.382
43.4759
-0.189252
-0.0927123
-0.383833
-0.132671
-0.215833
-0.183566
-0.153891
-0.125021
-0.0964339
-0.0682806
-0.0410197
-0.0137641
43.0742
43.0784
43.0897
43.1086
43.1349
43.1686
43.2103
43.2496
43.3391
43.2684
43.4784
43.3797
43.4745
-0.19737
-0.100628
-0.391422
-0.139489
-0.221921
-0.18886
-0.158355
-0.128648
-0.0992329
-0.0702645
-0.0422025
-0.0141558
43.0685
43.0726
43.0836
43.102
43.128
43.1614
43.203
43.2431
43.3299
43.2648
43.472
43.3775
43.4733
-0.206206
-0.109206
-0.399616
-0.146865
-0.228499
-0.19458
-0.163177
-0.132566
-0.102255
-0.0724064
-0.0434795
-0.0145786
43.0626
43.0665
43.0772
43.0952
43.1207
43.1537
43.1952
43.2362
43.3202
43.2612
43.4657
43.3759
43.4729
-0.215629
-0.118321
-0.408296
-0.154692
-0.235472
-0.200642
-0.168286
-0.136717
-0.105457
-0.0746751
-0.0448319
-0.0150264
43.0566
43.0603
43.0706
43.0881
43.1131
43.1456
43.1869
43.2289
43.3103
43.2578
43.4599
43.3751
43.4734
-0.225496
-0.127834
-0.417336
-0.162852
-0.242738
-0.206957
-0.173608
-0.141039
-0.10879
-0.0770369
-0.0462398
-0.0154926
43.0507
43.0542
43.064
43.0809
43.1053
43.1374
43.1785
43.2214
43.3004
43.2547
43.4548
43.3754
43.4753
-0.235655
-0.137596
-0.426599
-0.171219
-0.250186
-0.213429
-0.179062
-0.145468
-0.112205
-0.0794559
-0.0476817
-0.01597
43.0449
43.0481
43.0575
43.0738
43.0975
43.129
43.1699
43.2138
43.2908
43.2523
43.4508
43.3772
43.4789
-0.245948
-0.147455
-0.435942
-0.179663
-0.257699
-0.219957
-0.184561
-0.149933
-0.115647
-0.0818944
-0.049135
-0.0164512
43.0393
43.0422
43.0511
43.0667
43.0897
43.1207
43.1614
43.2061
43.2817
43.2506
43.4482
43.3809
43.4847
-0.256211
-0.157255
-0.445212
-0.188049
-0.265159
-0.226436
-0.190019
-0.154364
-0.119063
-0.0843135
-0.0505768
-0.0169285
43.034
43.0366
43.0449
43.0599
43.0822
43.1127
43.1531
43.1987
43.2732
43.2497
43.4472
43.3867
43.4927
-0.26628
-0.166835
-0.454259
-0.19624
-0.272442
-0.23276
-0.195346
-0.158688
-0.122395
-0.0866738
-0.0519833
-0.0173942
43.0291
43.0314
43.0392
43.0535
43.0751
43.105
43.1451
43.1916
43.2657
43.2498
43.4479
43.3946
43.5031
-0.275988
-0.176042
-0.462932
-0.204102
-0.279427
-0.238825
-0.200454
-0.162834
-0.12559
-0.0889359
-0.0533313
-0.0178404
43.0247
43.0267
43.0339
43.0475
43.0684
43.0977
43.1377
43.185
43.2591
43.2507
43.4502
43.4044
43.5156
-0.285178
-0.184715
-0.471078
-0.211501
-0.285993
-0.244526
-0.205254
-0.16673
-0.128592
-0.0910614
-0.0545977
-0.0182596
43.0209
43.0225
43.0291
43.0421
43.0623
43.0911
43.1309
43.1791
43.2536
43.2524
43.4539
43.4157
43.5299
-0.293697
-0.192742
-0.478559
-0.218314
-0.292026
-0.249766
-0.209666
-0.170308
-0.13135
-0.0930135
-0.0557608
-0.0186446
43.0178
43.019
43.025
43.0373
43.0569
43.0852
43.1249
43.1738
43.2491
43.2547
43.4587
43.4276
43.5452
-0.301397
-0.199928
-0.485229
-0.224412
-0.297417
-0.254449
-0.213608
-0.173508
-0.133814
-0.0947582
-0.0568002
-0.0189886
43.0155
43.0162
43.0216
43.0333
43.0523
43.0802
43.1197
43.1694
43.2455
43.2573
43.4641
43.4392
43.5605
-0.30816
-0.206282
-0.490989
-0.229719
-0.302076
-0.258497
-0.217014
-0.17627
-0.135942
-0.0962643
-0.0576974
-0.0192854
43.0142
43.0141
43.0189
43.03
43.0486
43.0761
43.1155
43.1658
43.2428
43.2599
43.4694
43.4499
43.5749
-0.313872
-0.211475
-0.495703
-0.234082
-0.305906
-0.261826
-0.219818
-0.178544
-0.137694
-0.0975042
-0.0584359
-0.0195296
43.014
43.0129
43.0169
43.0276
43.0457
43.073
43.1123
43.1631
43.2409
43.2621
43.4742
43.459
43.5872
-0.318455
-0.215803
-0.499313
-0.237516
-0.308855
-0.264389
-0.221972
-0.180291
-0.139039
-0.0984558
-0.0590025
-0.0197168
43.014
43.0122
43.0156
43.026
43.0439
43.0709
43.1102
43.1614
43.2397
43.2638
43.478
43.466
43.5966
-0.321844
-0.218561
-0.501722
-0.239813
-0.310849
-0.266119
-0.223432
-0.181475
-0.139951
-0.0991013
-0.0593866
-0.0198435
43.0194
43.0127
43.0151
43.0253
43.043
43.07
43.1093
43.1606
43.2392
43.2646
43.4816
43.4694
43.6022
-0.324033
-0.220874
-0.502851
-0.241131
-0.311875
-0.266995
-0.224178
-0.182079
-0.140415
-0.0994296
-0.0595812
-0.0199069
43.1059
43.104
43.114
43.1332
43.1603
43.1944
43.2358
43.2701
43.3724
43.2722
43.5145
43.389
43.4767
-0.167082
-0.0697269
-0.358191
-0.111491
-0.194154
-0.164783
-0.13749
-0.111239
-0.0854642
-0.0602763
-0.0361085
-0.0120802
43.0997
43.1021
43.113
43.1323
43.1595
43.1935
43.235
43.2695
43.3712
43.2732
43.5086
43.3876
43.4768
-0.167487
-0.0692309
-0.359389
-0.111847
-0.194919
-0.165553
-0.138137
-0.111767
-0.085873
-0.0605656
-0.0362823
-0.0121411
43.0964
43.0998
43.1111
43.1305
43.1576
43.1917
43.2332
43.268
43.3687
43.2733
43.5049
43.386
43.4769
-0.169494
-0.0729172
-0.361832
-0.114195
-0.196832
-0.167136
-0.139455
-0.112835
-0.0866964
-0.0611489
-0.03663
-0.0122538
43.0923
43.0966
43.1082
43.1277
43.1548
43.1888
43.2303
43.2657
43.3649
43.2727
43.5
43.3843
43.4764
-0.173025
-0.0734284
-0.365027
-0.116846
-0.199459
-0.169454
-0.141414
-0.114426
-0.087923
-0.0620176
-0.0371478
-0.0124262
43.0879
43.0928
43.1046
43.1241
43.1511
43.185
43.2265
43.2624
43.3598
43.2715
43.4941
43.3821
43.4751
-0.176272
-0.0802238
-0.369617
-0.120913
-0.203027
-0.172525
-0.143995
-0.11652
-0.0895374
-0.0631609
-0.0378291
-0.0126521
43.0833
43.0884
43.1003
43.1197
43.1465
43.1803
43.2217
43.2583
43.3534
43.2701
43.4867
43.3794
43.4732
-0.181353
-0.084923
-0.375029
-0.125691
-0.207355
-0.176286
-0.147164
-0.119092
-0.091519
-0.0645642
-0.0386653
-0.0129289
43.0784
43.0835
43.0954
43.1146
43.1411
43.1747
43.216
43.2532
43.3458
43.2677
43.4787
43.3762
43.4707
-0.187975
-0.0916261
-0.381414
-0.131387
-0.212442
-0.180699
-0.150879
-0.122107
-0.0938422
-0.0662092
-0.0396453
-0.0132533
43.0731
43.0782
43.0899
43.1088
43.135
43.1683
43.2094
43.2474
43.3371
43.2635
43.4711
43.3726
43.4678
-0.195629
-0.0990991
-0.38864
-0.137858
-0.218213
-0.185706
-0.155093
-0.125525
-0.096476
-0.068074
-0.0407563
-0.013621
43.0675
43.0725
43.084
43.1025
43.1283
43.1613
43.2021
43.2407
43.3274
43.2586
43.4629
43.3686
43.4647
-0.204168
-0.10744
-0.396624
-0.145023
-0.224591
-0.19124
-0.159749
-0.129302
-0.0993849
-0.0701332
-0.0419829
-0.0140269
43.0617
43.0666
43.0777
43.0958
43.1211
43.1535
43.194
43.2332
43.3169
43.2533
43.454
43.3644
43.4614
-0.213472
-0.116493
-0.405253
-0.15278
-0.231488
-0.197223
-0.164781
-0.133383
-0.102528
-0.0723581
-0.0433081
-0.0144653
43.0558
43.0604
43.0712
43.0887
43.1134
43.1453
43.1854
43.2252
43.3056
43.2478
43.4448
43.3602
43.4581
-0.223396
-0.126121
-0.414403
-0.161016
-0.238806
-0.203569
-0.170119
-0.137711
-0.105861
-0.0747166
-0.0447128
-0.01493
43.0497
43.0541
43.0644
43.0814
43.1054
43.1367
43.1763
43.2165
43.2939
43.242
43.4356
43.3563
43.4553
-0.2338
-0.136177
-0.42394
-0.169609
-0.246437
-0.210187
-0.175684
-0.142221
-0.109333
-0.0771738
-0.0461762
-0.0154141
43.0437
43.0479
43.0577
43.0739
43.0972
43.1277
43.1668
43.2075
43.282
43.2363
43.4266
43.3529
43.4532
-0.244515
-0.146505
-0.433721
-0.178426
-0.254266
-0.216973
-0.18139
-0.146846
-0.112894
-0.0796926
-0.047676
-0.0159103
43.0378
43.0417
43.0509
43.0665
43.0889
43.1187
43.1571
43.1982
43.2702
43.2308
43.4182
43.3506
43.4522
-0.255379
-0.156941
-0.443594
-0.187331
-0.262171
-0.223825
-0.18715
-0.151513
-0.116486
-0.0822339
-0.0491892
-0.0164109
43.0321
43.0357
43.0444
43.0592
43.0807
43.1097
43.1475
43.1888
43.2587
43.2258
43.411
43.3498
43.4528
-0.266216
-0.16732
-0.453399
-0.19618
-0.270026
-0.230631
-0.192871
-0.156149
-0.120053
-0.084757
-0.0506915
-0.0169078
43.0268
43.03
43.0381
43.0521
43.0728
43.1009
43.138
43.1796
43.2477
43.2215
43.4051
43.351
43.4553
-0.276853
-0.177472
-0.462974
-0.20483
-0.277701
-0.23728
-0.198459
-0.160676
-0.123536
-0.0872205
-0.0521583
-0.017393
43.0218
43.0247
43.0321
43.0454
43.0652
43.0924
43.1289
43.1706
43.2376
43.218
43.4009
43.3541
43.4601
-0.287109
-0.187232
-0.47216
-0.213137
-0.285067
-0.24366
-0.203821
-0.165019
-0.126878
-0.0895833
-0.0535648
-0.0178582
43.0173
43.0198
43.0267
43.0391
43.0581
43.0845
43.1203
43.1622
43.2285
43.2153
43.3984
43.359
43.467
-0.296826
-0.196431
-0.480793
-0.220958
-0.291996
-0.249662
-0.208865
-0.169104
-0.13002
-0.0918049
-0.0548873
-0.0182956
43.0134
43.0156
43.0218
43.0335
43.0516
43.0772
43.1124
43.1545
43.2206
43.2136
43.3974
43.3646
43.4757
-0.305832
-0.204943
-0.488726
-0.228163
-0.298368
-0.255181
-0.213502
-0.172859
-0.132908
-0.0938469
-0.0561027
-0.0186975
43.0103
43.012
43.0175
43.0285
43.0458
43.0707
43.1054
43.1477
43.2138
43.2126
43.3979
43.3713
43.4857
-0.313975
-0.212567
-0.495804
-0.234613
-0.304064
-0.260118
-0.217649
-0.176217
-0.135491
-0.0956727
-0.0571895
-0.0190569
43.008
43.0091
43.014
43.0242
43.0409
43.0651
43.0993
43.1418
43.2082
43.2123
43.3992
43.3785
43.4961
-0.321128
-0.2193
-0.501917
-0.240227
-0.308989
-0.264386
-0.221232
-0.179118
-0.137721
-0.0972495
-0.0581279
-0.0193672
43.0066
43.007
43.0112
43.0208
43.0369
43.0606
43.0944
43.137
43.2038
43.2123
43.401
43.3852
43.506
-0.327167
-0.22481
-0.506924
-0.244845
-0.31304
-0.267897
-0.224184
-0.181508
-0.139559
-0.0985483
-0.0589008
-0.0196227
43.0064
43.0057
43.0091
43.0183
43.0338
43.0571
43.0906
43.1334
43.2005
43.2126
43.4028
43.3909
43.5146
-0.332007
-0.229378
-0.510761
-0.248475
-0.316159
-0.270602
-0.226452
-0.183344
-0.14097
-0.0995455
-0.0594941
-0.0198185
43.0063
43.0049
43.0078
43.0166
43.0318
43.0548
43.0881
43.131
43.1983
43.213
43.4042
43.3953
43.5211
-0.335579
-0.232307
-0.513323
-0.250906
-0.318269
-0.272428
-0.22799
-0.184589
-0.141927
-0.100222
-0.0598964
-0.0199512
43.0117
43.0054
43.0073
43.0158
43.0309
43.0538
43.087
43.1299
43.1973
43.2134
43.4056
43.3981
43.5246
-0.337865
-0.234701
-0.51453
-0.252288
-0.319354
-0.273352
-0.228775
-0.185224
-0.142414
-0.100566
-0.0601006
-0.0200177
43.0986
43.0971
43.1073
43.1264
43.1532
43.187
43.2282
43.2627
43.3633
43.2656
43.505
43.3819
43.4702
-0.17381
-0.0761314
-0.362436
-0.116648
-0.195934
-0.166334
-0.138045
-0.111088
-0.0849032
-0.0595739
-0.0355051
-0.0118057
43.0923
43.0952
43.1062
43.1255
43.1523
43.1861
43.2274
43.262
43.362
43.2665
43.4986
43.3803
43.4703
-0.174271
-0.0757133
-0.36369
-0.116938
-0.196509
-0.16713
-0.138712
-0.111636
-0.0853276
-0.059873
-0.0356856
-0.0118688
43.089
43.0929
43.1043
43.1235
43.1504
43.1841
43.2254
43.2604
43.3592
43.2665
43.4943
43.3784
43.4702
-0.176366
-0.0794148
-0.366395
-0.119833
-0.198715
-0.168812
-0.140099
-0.112756
-0.0861889
-0.0604822
-0.036048
-0.0119877
43.0849
43.0896
43.1014
43.1207
43.1474
43.1811
43.2222
43.2577
43.3549
43.2657
43.4885
43.3762
43.4692
-0.179766
-0.0804409
-0.369732
-0.122371
-0.201461
-0.171255
-0.14216
-0.114425
-0.0874727
-0.0613901
-0.0365883
-0.0121665
43.0805
43.0858
43.0977
43.1169
43.1435
43.1771
43.2181
43.254
43.3491
43.2643
43.4811
43.3733
43.4673
-0.184099
-0.0875586
-0.374671
-0.126726
-0.205233
-0.174497
-0.144876
-0.116623
-0.0891632
-0.0625853
-0.0372996
-0.0124016
43.0758
43.0813
43.0933
43.1124
43.1388
43.172
43.2128
43.2492
43.3419
43.2619
43.4725
43.3696
43.4644
-0.189271
-0.0926296
-0.3804
-0.131813
-0.209812
-0.178466
-0.148211
-0.119323
-0.0912396
-0.0640534
-0.0381732
-0.0126907
43.0708
43.0763
43.0882
43.1071
43.1331
43.166
43.2066
43.2434
43.3333
43.2576
43.4636
43.3651
43.4605
-0.196316
-0.0997609
-0.387199
-0.137879
-0.2152
-0.183127
-0.152125
-0.12249
-0.0936756
-0.0657756
-0.039198
-0.0130295
43.0654
43.0709
43.0826
43.1011
43.1267
43.1592
43.1993
43.2366
43.3233
43.2517
43.454
43.3596
43.4557
-0.204494
-0.107759
-0.394906
-0.144772
-0.221319
-0.18842
-0.156567
-0.126086
-0.0964399
-0.0677295
-0.0403608
-0.013414
43.0598
43.0651
43.0765
43.0946
43.1196
43.1515
43.1912
43.2288
43.312
43.245
43.443
43.3532
43.45
-0.213625
-0.116692
-0.40343
-0.152408
-0.228088
-0.194275
-0.16148
-0.130061
-0.0994956
-0.0698893
-0.0416457
-0.0138388
43.0539
43.0591
43.0701
43.0876
43.1119
43.1432
43.1822
43.22
43.2996
43.2375
43.4308
43.3459
43.4433
-0.223578
-0.126397
-0.412651
-0.160681
-0.235416
-0.200612
-0.166796
-0.134361
-0.102801
-0.072225
-0.0430353
-0.014298
43.0479
43.0528
43.0633
43.0802
43.1038
43.1342
43.1725
43.2104
43.2862
43.2292
43.4174
43.3377
43.4357
-0.234209
-0.136727
-0.42244
-0.169473
-0.243199
-0.207343
-0.172441
-0.138926
-0.106309
-0.0747036
-0.0445099
-0.0147852
43.0417
43.0464
43.0564
43.0725
43.0953
43.1248
43.1621
43.2
43.272
43.2201
43.4033
43.3288
43.4275
-0.245356
-0.147526
-0.432654
-0.178654
-0.251325
-0.214367
-0.178332
-0.14369
-0.109968
-0.0772889
-0.0460476
-0.0152933
43.0356
43.0399
43.0494
43.0648
43.0866
43.1151
43.1513
43.1889
43.2573
43.2105
43.3887
43.3198
43.4188
-0.256849
-0.158625
-0.443141
-0.188084
-0.259672
-0.221581
-0.18438
-0.148579
-0.113725
-0.0799418
-0.0476255
-0.0158147
43.0296
43.0336
43.0425
43.057
43.0777
43.1051
43.1402
43.1774
43.2423
43.2007
43.3741
43.3112
43.4103
-0.268508
-0.16985
-0.453738
-0.197615
-0.268108
-0.22887
-0.190491
-0.153519
-0.117518
-0.0826212
-0.049219
-0.0163412
43.0238
43.0275
43.0357
43.0493
43.069
43.0952
43.129
43.1656
43.2274
43.1909
43.3599
43.3033
43.4024
-0.280149
-0.181022
-0.464272
-0.207097
-0.276501
-0.23612
-0.196568
-0.158431
-0.12129
-0.0852841
-0.0508026
-0.0168646
43.0183
43.0216
43.0292
43.0419
43.0604
43.0854
43.118
43.1539
43.2129
43.1815
43.3468
43.2969
43.3958
-0.291578
-0.191957
-0.47457
-0.216372
-0.284709
-0.243209
-0.202511
-0.163233
-0.124976
-0.0878869
-0.0523503
-0.0173759
43.0133
43.0162
43.023
43.0348
43.0522
43.076
43.1073
43.1425
43.1991
43.1727
43.3352
43.2912
43.391
-0.302609
-0.202476
-0.484457
-0.225286
-0.292595
-0.250019
-0.208218
-0.167844
-0.128516
-0.0903859
-0.0538361
-0.0178669
43.0087
43.0112
43.0174
43.0282
43.0446
43.0671
43.0972
43.1316
43.1865
43.1647
43.3253
43.287
43.3882
-0.313056
-0.212394
-0.493758
-0.233684
-0.300019
-0.25643
-0.213591
-0.172185
-0.131848
-0.0927376
-0.0552343
-0.0183288
43.0047
43.0069
43.0123
43.0223
43.0375
43.0589
43.0879
43.1216
43.1751
43.1577
43.3173
43.2842
43.3872
-0.322746
-0.221572
-0.502311
-0.241423
-0.306852
-0.262331
-0.218535
-0.176178
-0.134913
-0.0949006
-0.0565203
-0.0187537
43.0015
43.0032
43.0079
43.017
43.0313
43.0516
43.0795
43.1126
43.1652
43.1519
43.3109
43.2826
43.3877
-0.33151
-0.229798
-0.509946
-0.248357
-0.312964
-0.267612
-0.22296
-0.179753
-0.137656
-0.0968363
-0.0576711
-0.0191338
42.9991
43.0002
43.0042
43.0125
43.0259
43.0453
43.0723
43.1049
43.1567
43.1471
43.306
43.2819
43.389
-0.339207
-0.23705
-0.516546
-0.25439
-0.318253
-0.27218
-0.226786
-0.182842
-0.140026
-0.0985089
-0.0586653
-0.0194622
42.9977
42.998
43.0013
43.0089
43.0216
43.0402
43.0664
43.0985
43.1499
43.1433
43.3021
43.2815
43.3906
-0.345702
-0.242995
-0.521954
-0.259356
-0.322605
-0.275941
-0.229939
-0.185389
-0.14198
-0.0998876
-0.0594849
-0.0197329
42.9974
42.9966
42.9991
43.0062
43.0183
43.0363
43.0619
43.0936
43.1446
43.1407
43.2992
43.2811
43.3918
-0.350904
-0.247891
-0.526102
-0.263253
-0.325957
-0.278838
-0.232363
-0.187346
-0.143481
-0.100947
-0.0601143
-0.0199406
42.9973
42.9959
42.9978
43.0044
43.0161
43.0337
43.0589
43.0903
43.141
43.139
43.2968
43.2805
43.3922
-0.354732
-0.251053
-0.528875
-0.265868
-0.328226
-0.280795
-0.234007
-0.188673
-0.1445
-0.101665
-0.0605414
-0.0200813
43.0027
42.9964
42.9972
43.0036
43.0151
43.0324
43.0574
43.0888
43.1393
43.1386
43.296
43.2798
43.392
-0.357158
-0.253562
-0.530191
-0.26734
-0.329393
-0.281785
-0.234846
-0.18935
-0.145019
-0.102032
-0.0607585
-0.0201521
43.0902
43.0889
43.0991
43.118
43.1445
43.1779
43.2188
43.2535
43.3519
43.2573
43.4933
43.3729
43.4618
-0.182434
-0.0842643
-0.367572
-0.123057
-0.197872
-0.168094
-0.138599
-0.110772
-0.0840957
-0.0586196
-0.0347012
-0.0114462
43.0839
43.087
43.098
43.117
43.1435
43.177
43.2178
43.2527
43.3505
43.2583
43.4864
43.3712
43.4618
-0.182971
-0.0839483
-0.368814
-0.123519
-0.198475
-0.168927
-0.139258
-0.11133
-0.0845341
-0.0589241
-0.0348896
-0.0115107
43.0806
43.0846
43.096
43.115
43.1415
43.1748
43.2156
43.2508
43.3473
43.2581
43.4813
43.369
43.4614
-0.185219
-0.0877802
-0.372101
-0.127016
-0.2012
-0.170739
-0.140746
-0.11252
-0.0854449
-0.0595685
-0.0352705
-0.0116363
43.0764
43.0814
43.0931
43.1121
43.1384
43.1716
43.2122
43.2477
43.3425
43.2571
43.4743
43.3662
43.4599
-0.188749
-0.089513
-0.375447
-0.129021
-0.20391
-0.173328
-0.142935
-0.114287
-0.0868
-0.0605254
-0.0358386
-0.0118239
43.072
43.0774
43.0893
43.1082
43.1343
43.1672
43.2076
43.2434
43.3359