/*--------------------------------*- C++ -*----------------------------------*\
| =========                 |                                                 |
| \\      /  F ield         | OpenFOAM: The Open Source CFD Toolbox           |
|  \\    /   O peration     | Version:  2306                                  |
|   \\  /    A nd           | Website:  www.openfoam.com                      |
|    \\/     M anipulation  |                                                 |
\*---------------------------------------------------------------------------*/
FoamFile
{
    version     2.0;
    format      ascii;
    arch        "LSB;label=32;scalar=64";
    class       volScalarField;
    location    "4.8";
    object      p;
}
// * * * * * * * * * * * * * * * * * * * * * * * * * * * * * * * * * * * * * //

dimensions      [0 2 -2 0 0 0 0];

internalField   nonuniform List<scalar> 
288632
(
69.8077
69.7994
69.8124
69.8382
69.8735
69.9151
69.9703
70.0147
70.0808
70.1133
70.184
70.2049
70.2338
-2.75579
-2.61315
-2.58686
-2.2839
-2.14524
-1.85016
-1.60039
-1.3221
-1.03389
-0.740802
-0.445311
-0.148659
69.8009
69.798
69.8119
69.8379
69.8734
69.9151
69.9705
70.0151
70.0814
70.1144
70.1847
70.2051
70.2348
-2.75645
-2.6139
-2.58817
-2.28495
-2.1463
-1.85117
-1.60123
-1.32282
-1.03446
-0.741222
-0.445566
-0.148745
69.799
69.7969
69.8111
69.8371
69.8728
69.9148
69.9704
70.0156
70.0822
70.1164
70.1866
70.2071
70.2374
-2.75862
-2.61654
-2.59085
-2.28731
-2.1486
-1.85319
-1.60301
-1.32432
-1.03566
-0.742089
-0.446091
-0.148922
69.7954
69.795
69.8098
69.836
69.872
69.9143
69.9701
70.0162
70.0833
70.1191
70.1891
70.2106
70.2412
-2.76221
-2.62027
-2.59484
-2.29081
-2.15204
-1.85618
-1.60567
-1.32657
-1.03744
-0.743387
-0.44688
-0.149188
69.7929
69.793
69.8082
69.8347
69.8708
69.9136
69.9698
70.0168
70.0847
70.1225
70.1925
70.2151
70.2461
-2.76715
-2.62534
-2.60008
-2.29545
-2.15658
-1.86011
-1.60918
-1.32952
-1.0398
-0.745098
-0.447919
-0.149539
69.7904
69.7908
69.8063
69.833
69.8695
69.9127
69.9693
70.0176
70.0865
70.1266
70.1969
70.2208
70.2523
-2.77331
-2.6315
-2.60645
-2.30111
-2.16213
-1.86493
-1.61348
-1.33315
-1.04269
-0.7472
-0.449197
-0.14997
69.7879
69.7885
69.8042
69.8311
69.8679
69.9117
69.9687
70.0184
70.0885
70.1313
70.2022
70.2278
70.2597
-2.78057
-2.63872
-2.61387
-2.30774
-2.16861
-1.87055
-1.61852
-1.3374
-1.04607
-0.749662
-0.450695
-0.150475
69.7853
69.7861
69.8019
69.8291
69.8661
69.9105
69.9681
70.0193
70.0908
70.1368
70.2085
70.2359
70.2685
-2.78881
-2.64683
-2.62219
-2.31519
-2.17592
-1.87689
-1.6242
-1.3422
-1.0499
-0.752451
-0.452391
-0.151048
69.7828
69.7837
69.7996
69.8268
69.8642
69.9092
69.9674
70.0204
70.0935
70.1429
70.2158
70.2454
70.2787
-2.79786
-2.6557
-2.63128
-2.32336
-2.18392
-1.88386
-1.63045
-1.34748
-1.05412
-0.755525
-0.454262
-0.15168
69.7803
69.7812
69.7972
69.8245
69.8622
69.9078
69.9667
70.0216
70.0966
70.1497
70.2243
70.2562
70.2905
-2.80755
-2.66517
-2.64098
-2.33211
-2.19251
-1.89134
-1.63718
-1.35317
-1.05866
-0.75884
-0.456281
-0.152362
69.7778
69.7788
69.7947
69.8222
69.8601
69.9063
69.966
70.0229
70.1
70.1571
70.2341
70.2685
70.3039
-2.81772
-2.67507
-2.65112
-2.34128
-2.20152
-1.89921
-1.64426
-1.35918
-1.06347
-0.762346
-0.458417
-0.153084
69.7753
69.7763
69.7922
69.8198
69.8579
69.9048
69.9654
70.0243
70.1038
70.1653
70.245
70.2822
70.3191
-2.82818
-2.68523
-2.66153
-2.35073
-2.21083
-1.90736
-1.65161
-1.3654
-1.06846
-0.765988
-0.460637
-0.153835
69.773
69.7739
69.7898
69.8174
69.8558
69.9034
69.9648
70.0259
70.1079
70.1742
70.2571
70.2975
70.336
-2.83876
-2.69549
-2.67205
-2.36031
-2.22027
-1.91564
-1.65909
-1.37176
-1.07355
-0.769711
-0.462908
-0.154603
69.7708
69.7716
69.7874
69.8151
69.8537
69.9019
69.9643
70.0277
70.1124
70.1836
70.2705
70.3143
70.3548
-2.84929
-2.70568
-2.6825
-2.36986
-2.2297
-1.92393
-1.66658
-1.37814
-1.07867
-0.773454
-0.465193
-0.155377
69.7687
69.7695
69.7852
69.8128
69.8516
69.9005
69.9639
70.0297
70.1172
70.1937
70.285
70.3324
70.3752
-2.85959
-2.71563
-2.69271
-2.37922
-2.23897
-1.93208
-1.67398
-1.38443
-1.08373
-0.777159
-0.467455
-0.156144
69.7668
69.7675
69.7831
69.8107
69.8497
69.8992
69.9636
70.0317
70.1223
70.2041
70.3004
70.3517
70.3971
-2.86951
-2.72519
-2.70253
-2.38825
-2.24792
-1.93999
-1.68115
-1.39055
-1.08865
-0.780764
-0.469658
-0.15689
69.7652
69.7658
69.7812
69.8088
69.8479
69.898
69.9635
70.0339
70.1275
70.2147
70.3165
70.3718
70.4202
-2.8789
-2.73422
-2.7118
-2.39682
-2.25642
-1.9475
-1.68799
-1.39639
-1.09335
-0.78421
-0.471765
-0.157605
69.7639
69.7643
69.7795
69.8071
69.8463
69.8969
69.9634
70.0362
70.1328
70.2253
70.3328
70.3923
70.444
-2.88762
-2.74258
-2.72039
-2.40477
-2.26433
-1.95451
-1.69437
-1.40185
-1.09775
-0.78744
-0.473741
-0.158275
69.7629
69.7631
69.7781
69.8055
69.8449
69.896
69.9635
70.0384
70.1379
70.2356
70.3489
70.4126
70.4677
-2.89555
-2.75017
-2.72817
-2.41202
-2.27153
-1.96091
-1.70021
-1.40684
-1.10178
-0.790398
-0.475551
-0.15889
69.7624
69.7621
69.7769
69.8042
69.8437
69.8952
69.9636
70.0406
70.1428
70.2452
70.3642
70.4321
70.4907
-2.9026
-2.75687
-2.73503
-2.41842
-2.27791
-1.96658
-1.70539
-1.41129
-1.10537
-0.793035
-0.477166
-0.159438
69.7623
69.7616
69.776
69.8031
69.8427
69.8945
69.9637
70.0425
70.1472
70.2539
70.3781
70.45
70.5121
-2.90866
-2.76263
-2.74089
-2.42393
-2.28339
-1.97146
-1.70985
-1.41511
-1.10846
-0.795305
-0.478557
-0.159911
69.7622
69.7612
69.7753
69.8023
69.8419
69.894
69.9639
70.0442
70.151
70.2613
70.39
70.4657
70.5309
-2.91368
-2.76731
-2.74565
-2.42842
-2.28786
-1.97544
-1.71351
-1.41825
-1.111
-0.797171
-0.479699
-0.160299
69.7646
69.7615
69.7748
69.8017
69.8413
69.8937
69.9641
70.0455
70.1539
70.2671
70.3994
70.4784
70.5462
-2.91759
-2.77099
-2.74928
-2.43187
-2.29129
-1.97848
-1.71631
-1.42065
-1.11294
-0.798599
-0.480574
-0.160596
69.7654
69.7613
69.7744
69.8013
69.8409
69.8934
69.9641
70.0464
70.156
70.2711
70.4056
70.4876
70.5574
-2.92033
-2.77334
-2.75171
-2.43418
-2.29362
-1.98052
-1.71821
-1.42227
-1.11425
-0.799564
-0.481166
-0.160797
69.7714
69.7622
69.7744
69.8013
69.8408
69.8934
69.9643
70.047
70.1571
70.2733
70.4091
70.492
70.564
-2.92183
-2.775
-2.75295
-2.43543
-2.29485
-1.98152
-1.71919
-1.42309
-1.11492
-0.800054
-0.481465
-0.160897
69.799
69.7959
69.8097
69.8356
69.8709
69.9125
69.9676
70.012
70.078
70.1108
70.1808
70.2022
70.2323
-2.76404
-2.62243
-2.59578
-2.29088
-2.15073
-1.85446
-1.60319
-1.32386
-1.03489
-0.741299
-0.445506
-0.148691
69.7923
69.7943
69.8092
69.8353
69.8708
69.9125
69.9678
70.0125
70.0785
70.1126
70.1799
70.2027
70.2337
-2.76466
-2.6232
-2.59712
-2.29196
-2.15182
-1.8555
-1.60405
-1.3246
-1.03548
-0.741727
-0.445766
-0.148779
69.7903
69.7933
69.8085
69.8346
69.8702
69.9121
69.9676
70.0129
70.0793
70.1146
70.1816
70.2047
70.2364
-2.76685
-2.62589
-2.59986
-2.29436
-2.15416
-1.85755
-1.60586
-1.32613
-1.0367
-0.742608
-0.446301
-0.14896
69.7869
69.7913
69.8071
69.8334
69.8693
69.9116
69.9674
70.0134
70.0804
70.1173
70.1838
70.208
70.2402
-2.7705
-2.62969
-2.60393
-2.29793
-2.15766
-1.8606
-1.60857
-1.32841
-1.03851
-0.743927
-0.447102
-0.14923
69.7845
69.7892
69.8055
69.832
69.8682
69.9109
69.9669
70.014
70.0817
70.1206
70.1871
70.2125
70.2451
-2.77551
-2.63485
-2.60927
-2.30265
-2.16229
-1.8646
-1.61214
-1.33142
-1.04091
-0.745668
-0.44816
-0.149586
69.782
69.787
69.8036
69.8303
69.8667
69.9099
69.9664
70.0146
70.0833
70.1245
70.1913
70.2182
70.2512
-2.78176
-2.64113
-2.61577
-2.30842
-2.16794
-1.8695
-1.61651
-1.33511
-1.04385
-0.747806
-0.449459
-0.150025
69.7794
69.7848
69.8015
69.8284
69.8651
69.9088
69.9657
70.0154
70.0852
70.1291
70.1964
70.225
70.2586
-2.78913
-2.64848
-2.62333
-2.31516
-2.17454
-1.87523
-1.62163
-1.33943
-1.04729
-0.750311
-0.450983
-0.150539
69.7768
69.7825
69.7992
69.8263
69.8633
69.9075
69.965
70.0161
70.0874
70.1343
70.2025
70.2331
70.2673
-2.79748
-2.65673
-2.63181
-2.32275
-2.18198
-1.88169
-1.62742
-1.34432
-1.05119
-0.75315
-0.45271
-0.151122
69.7742
69.7801
69.7968
69.824
69.8613
69.9061
69.9642
70.017
70.0899
70.1401
70.2096
70.2424
70.2775
-2.80665
-2.66576
-2.64107
-2.33107
-2.19014
-1.88878
-1.63379
-1.3497
-1.05548
-0.75628
-0.454615
-0.151766
69.7716
69.7776
69.7944
69.8217
69.8592
69.9046
69.9633
70.018
70.0927
70.1465
70.2178
70.253
70.2891
-2.81648
-2.67539
-2.65095
-2.33997
-2.19888
-1.8964
-1.64063
-1.35549
-1.06011
-0.759656
-0.456672
-0.152461
69.7691
69.7751
69.7919
69.8193
69.857
69.9031
69.9625
70.019
70.0958
70.1536
70.227
70.265
70.3023
-2.82677
-2.68545
-2.66128
-2.34931
-2.20806
-1.90442
-1.64785
-1.36161
-1.06501
-0.763228
-0.458848
-0.153197
69.7667
69.7726
69.7894
69.8168
69.8548
69.9014
69.9617
70.0202
70.0992
70.1612
70.2374
70.2784
70.3172
-2.83736
-2.69578
-2.67188
-2.35893
-2.21754
-1.91272
-1.65533
-1.36796
-1.07009
-0.76694
-0.461112
-0.153963
69.7643
69.7702
69.7869
69.8144
69.8526
69.8998
69.9609
70.0215
70.103
70.1695
70.2489
70.2933
70.3339
-2.84807
-2.7062
-2.68258
-2.36868
-2.22717
-1.92116
-1.66296
-1.37444
-1.07529
-0.770736
-0.463428
-0.154747
69.7621
69.7679
69.7845
69.812
69.8504
69.8982
69.9602
70.023
70.1071
70.1783
70.2616
70.3097
70.3524
-2.85872
-2.71654
-2.69321
-2.37839
-2.23677
-1.9296
-1.6706
-1.38094
-1.08051
-0.774555
-0.465759
-0.155536
69.76
69.7657
69.7822
69.8097
69.8482
69.8967
69.9596
70.0245
70.1115
70.1876
70.2752
70.3274
70.3725
-2.86914
-2.72663
-2.7036
-2.38791
-2.24621
-1.93792
-1.67814
-1.38737
-1.08567
-0.778335
-0.468068
-0.156319
69.7581
69.7637
69.7801
69.8075
69.8462
69.8952
69.959
70.0262
70.1162
70.1973
70.2898
70.3462
70.3942
-2.87916
-2.73633
-2.71358
-2.3971
-2.25533
-1.94597
-1.68545
-1.39361
-1.09069
-0.782015
-0.470318
-0.157081
69.7565
69.762
69.7782
69.8055
69.8443
69.8938
69.9586
70.028
70.1209
70.2071
70.3049
70.3659
70.417
-2.88865
-2.74548
-2.723
-2.4058
-2.26399
-1.95363
-1.69242
-1.39957
-1.09549
-0.785533
-0.472469
-0.157811
69.7552
69.7605
69.7765
69.8037
69.8426
69.8926
69.9584
70.0299
70.1257
70.2169
70.3203
70.386
70.4404
-2.89745
-2.75395
-2.73172
-2.41389
-2.27204
-1.96077
-1.69893
-1.40514
-1.09998
-0.788831
-0.474487
-0.158496
69.7542
69.7592
69.775
69.8021
69.8411
69.8915
69.9582
70.0318
70.1304
70.2263
70.3355
70.4059
70.4639
-2.90546
-2.76163
-2.73963
-2.42125
-2.27938
-1.96729
-1.70488
-1.41024
-1.1041
-0.791853
-0.476337
-0.159125
69.7536
69.7583
69.7738
69.8008
69.8398
69.8906
69.9581
70.0336
70.1349
70.2352
70.3499
70.425
70.4867
-2.91256
-2.76841
-2.74659
-2.42777
-2.28588
-1.97308
-1.71017
-1.41477
-1.10776
-0.794547
-0.477987
-0.159685
69.7535
69.7577
69.7728
69.7997
69.8387
69.8898
69.958
70.0353
70.1389
70.2432
70.363
70.4426
70.5078
-2.91867
-2.77423
-2.75253
-2.43335
-2.29145
-1.97804
-1.71472
-1.41868
-1.11092
-0.796867
-0.479409
-0.160168
69.7534
69.7574
69.7721
69.7988
69.8378
69.8892
69.9581
70.0367
70.1423
70.25
70.3742
70.4579
70.5265
-2.92372
-2.77897
-2.75735
-2.43791
-2.29601
-1.9821
-1.71845
-1.42188
-1.11351
-0.798773
-0.480577
-0.160565
69.7558
69.7577
69.7717
69.7982
69.8372
69.8888
69.9581
70.0378
70.145
70.2553
70.383
70.4704
70.5417
-2.92766
-2.78268
-2.76103
-2.44141
-2.2995
-1.9852
-1.72131
-1.42433
-1.11549
-0.800232
-0.481472
-0.160869
69.7565
69.7575
69.7712
69.7978
69.8368
69.8884
69.9581
70.0386
70.1469
70.2591
70.3887
70.4791
70.5527
-2.93042
-2.78505
-2.76349
-2.44377
-2.30187
-1.98727
-1.72324
-1.42599
-1.11683
-0.801219
-0.482076
-0.161074
69.7625
69.7584
69.7712
69.7977
69.8367
69.8884
69.9582
70.0391
70.148
70.2613
70.392
70.482
70.5589
-2.93193
-2.78672
-2.76473
-2.44502
-2.30311
-1.98829
-1.72424
-1.42682
-1.11751
-0.801718
-0.482381
-0.161177
69.7929
69.7905
69.8045
69.8302
69.8655
69.9069
69.9618
70.0062
70.0721
70.1054
70.175
70.1972
70.2284
-2.78294
-2.6418
-2.61338
-2.30468
-2.16143
-1.86259
-1.60842
-1.32705
-1.03661
-0.742058
-0.445731
-0.148685
69.7862
69.7889
69.804
69.8299
69.8653
69.9068
69.9619
70.0067
70.0725
70.1073
70.1739
70.1977
70.2298
-2.78359
-2.64262
-2.61478
-2.3058
-2.16256
-1.86366
-1.60931
-1.32781
-1.03722
-0.7425
-0.445999
-0.148775
69.7844
69.7878
69.8032
69.8292
69.8647
69.9065
69.9617
70.007
70.0732
70.1092
70.1757
70.1996
70.2326
-2.78587
-2.64541
-2.61762
-2.30829
-2.16498
-1.86579
-1.61118
-1.32939
-1.03847
-0.743409
-0.446551
-0.148961
69.7809
69.7857
69.8019
69.828
69.8638
69.9059
69.9613
70.0074
70.0742
70.1117
70.1778
70.2028
70.2364
-2.78965
-2.64937
-2.62185
-2.31199
-2.16861
-1.86894
-1.61398
-1.33175
-1.04035
-0.744773
-0.447379
-0.149241
69.7783
69.7838
69.8002
69.8265
69.8625
69.905
69.9608
70.0078
70.0753
70.1149
70.1809
70.2072
70.2412
-2.79483
-2.65472
-2.6274
-2.31689
-2.17341
-1.87309
-1.61767
-1.33486
-1.04282
-0.746571
-0.448471
-0.149609
69.7756
69.7816
69.7983
69.8248
69.8611
69.904
69.9601
70.0083
70.0767
70.1185
70.1848
70.2126
70.2471
-2.80129
-2.66123
-2.63415
-2.32286
-2.17927
-1.87816
-1.6222
-1.33868
-1.04586
-0.748782
-0.449815
-0.150063
69.773
69.7793
69.7961
69.8228
69.8593
69.9027
69.9593
70.0087
70.0783
70.1228
70.1895
70.2191
70.2542
-2.80891
-2.66886
-2.64201
-2.32985
-2.18611
-1.88409
-1.6275
-1.34315
-1.04943
-0.751375
-0.451392
-0.150595
69.7704
69.7769
69.7938
69.8207
69.8574
69.9013
69.9583
70.0092
70.0801
70.1275
70.195
70.2267
70.2625
-2.81753
-2.67741
-2.65081
-2.33771
-2.19383
-1.89078
-1.6335
-1.34821
-1.05346
-0.754313
-0.453181
-0.151199
69.7678
69.7745
69.7914
69.8183
69.8553
69.8997
69.9573
70.0097
70.0822
70.1327
70.2015
70.2353
70.2721
-2.82699
-2.68676
-2.66043
-2.34633
-2.20229
-1.89814
-1.64009
-1.35379
-1.05792
-0.757557
-0.455155
-0.151866
69.7652
69.7719
69.7889
69.8159
69.853
69.898
69.9561
70.0102
70.0844
70.1384
70.2088
70.2451
70.283
-2.83711
-2.69673
-2.67067
-2.35555
-2.21136
-1.90604
-1.64719
-1.3598
-1.06272
-0.761058
-0.457288
-0.152587
69.7627
69.7694
69.7863
69.8134
69.8507
69.8962
69.9549
70.0108
70.0869
70.1446
70.217
70.2561
70.2954
-2.84771
-2.70714
-2.68138
-2.36522
-2.22089
-1.91436
-1.65468
-1.36615
-1.0678
-0.764765
-0.459548
-0.153352
69.7602
69.7669
69.7837
69.8108
69.8483
69.8943
69.9537
70.0113
70.0897
70.1512
70.2262
70.2683
70.3092
-2.8586
-2.71782
-2.69237
-2.37518
-2.23073
-1.92297
-1.66244
-1.37274
-1.07308
-0.76862
-0.461899
-0.154148
69.7578
69.7644
69.7812
69.8082
69.8459
69.8924
69.9525
70.012
70.0927
70.1583
70.2363
70.2816
70.3246
-2.86961
-2.72858
-2.70346
-2.38528
-2.24072
-1.93173
-1.67036
-1.37947
-1.07847
-0.772566
-0.464307
-0.154963
69.7555
69.7621
69.7787
69.8057
69.8435
69.8905
69.9514
70.0127
70.0959
70.1658
70.2473
70.2962
70.3415
-2.88054
-2.73924
-2.71446
-2.39533
-2.25069
-1.9405
-1.6783
-1.38623
-1.0839
-0.776537
-0.466733
-0.155785
69.7534
69.7598
69.7764
69.8033
69.8412
69.8886
69.9503
70.0135
70.0994
70.1736
70.2592
70.3119
70.36
-2.89122
-2.74965
-2.7252
-2.40518
-2.26049
-1.94913
-1.68613
-1.39291
-1.08927
-0.780472
-0.469137
-0.1566
69.7515
69.7578
69.7742
69.801
69.8389
69.8868
69.9493
70.0145
70.103
70.1816
70.2718
70.3286
70.3798
-2.90149
-2.75963
-2.73552
-2.41469
-2.26995
-1.9575
-1.69374
-1.39941
-1.0945
-0.784304
-0.47148
-0.157396
69.7499
69.756
69.7722
69.7989
69.8369
69.8851
69.9484
70.0155
70.1067
70.1898
70.2849
70.3459
70.4007
-2.91119
-2.76904
-2.74525
-2.42369
-2.27893
-1.96545
-1.70098
-1.40561
-1.0995
-0.787971
-0.473724
-0.158157
69.7485
69.7545
69.7704
69.797
69.835
69.8836
69.9476
70.0165
70.1105
70.198
70.2982
70.3636
70.4221
-2.92018
-2.77774
-2.75425
-2.43205
-2.28729
-1.97288
-1.70776
-1.41142
-1.10418
-0.791409
-0.475829
-0.158872
69.7475
69.7532
69.7689
69.7953
69.8333
69.8822
69.947
70.0177
70.1142
70.2059
70.3113
70.3811
70.4435
-2.92835
-2.78563
-2.76239
-2.43965
-2.2949
-1.97965
-1.71395
-1.41673
-1.10847
-0.794561
-0.477759
-0.159528
69.7469
69.7522
69.7676
69.7939
69.8318
69.881
69.9465
70.0188
70.1177
70.2132
70.3238
70.3979
70.4643
-2.93558
-2.79258
-2.76956
-2.44637
-2.30164
-1.98566
-1.71945
-1.42146
-1.1123
-0.797372
-0.479482
-0.160114
69.7468
69.7516
69.7666
69.7927
69.8305
69.88
69.946
70.0198
70.1208
70.2199
70.3351
70.4133
70.4835
-2.9418
-2.79854
-2.77568
-2.45213
-2.30742
-1.99081
-1.72418
-1.42552
-1.11559
-0.799793
-0.480967
-0.160619
69.7466
69.7512
69.7658
69.7917
69.8296
69.8792
69.9457
70.0207
70.1235
70.2255
70.3447
70.4267
70.5005
-2.94694
-2.80339
-2.78064
-2.45684
-2.31215
-1.99503
-1.72807
-1.42886
-1.11829
-0.801783
-0.482187
-0.161034
69.749
69.7515
69.7654
69.7911
69.8289
69.8786
69.9455
70.0214
70.1257
70.2299
70.3521
70.4375
70.5143
-2.95094
-2.80719
-2.78442
-2.46044
-2.31577
-1.99824
-1.73104
-1.43142
-1.12036
-0.803307
-0.483122
-0.161352
69.7497
69.7513
69.7649
69.7906
69.8283
69.8782
69.9453
70.0219
70.1271
70.233
70.3568
70.4454
70.5242
-2.95374
-2.80961
-2.78695
-2.46287
-2.31822
-2.0004
-1.73305
-1.43314
-1.12176
-0.804338
-0.483754
-0.161567
69.7557
69.7523
69.7649
69.7905
69.8282
69.8781
69.9453
70.0222
70.128
70.2349
70.3593
70.4497
70.5296
-2.95527
-2.81131
-2.78823
-2.46416
-2.31951
-2.00145
-1.73409
-1.43402
-1.12247
-0.80486
-0.484073
-0.161674
69.7833
69.7823
69.7966
69.8222
69.8572
69.8984
69.9529
69.9974
70.063
70.0971
70.1659
70.1896
70.2215
-2.81304
-2.6707
-2.63973
-2.32526
-2.17733
-1.87456
-1.61604
-1.33159
-1.03899
-0.743033
-0.445956
-0.14863
69.7767
69.7807
69.7961
69.8219
69.857
69.8983
69.953
69.9978
70.0634
70.099
70.1644
70.19
70.2229
-2.81375
-2.6716
-2.6412
-2.32645
-2.17852
-1.87568
-1.61698
-1.33239
-1.03962
-0.743495
-0.446235
-0.148725
69.7748
69.7796
69.7953
69.8211
69.8564
69.8979
69.9527
69.998
70.064
70.1007
70.1662
70.1918
70.2257
-2.81617
-2.67454
-2.64421
-2.32908
-2.18107
-1.87791
-1.61895
-1.33405
-1.04094
-0.744448
-0.446813
-0.148919
69.7713
69.7775
69.7939
69.8199
69.8554
69.8972
69.9522
69.9982
70.0647
70.1031
70.1679
70.1949
70.2293
-2.82016
-2.67873
-2.64869
-2.33298
-2.18489
-1.88123
-1.62189
-1.33652
-1.0429
-0.745877
-0.447681
-0.149212
69.7686
69.7755
69.7922
69.8184
69.8541
69.8963
69.9515
69.9984
70.0656
70.106
70.1706
70.1989
70.2338
-2.82562
-2.68439
-2.65456
-2.33813
-2.18995
-1.88559
-1.62576
-1.33979
-1.0455
-0.747764
-0.448828
-0.149599
69.766
69.7733
69.7903
69.8166
69.8525
69.8951
69.9506
69.9986
70.0666
70.1093
70.174
70.2039
70.2393
-2.83243
-2.69127
-2.6617
-2.34443
-2.19612
-1.89093
-1.63052
-1.3438
-1.04869
-0.750084
-0.450239
-0.150075
69.7633
69.771
69.7881
69.8145
69.8506
69.8936
69.9495
69.9986
70.0678
70.1129
70.1781
70.2099
70.2459
-2.84044
-2.69931
-2.67
-2.35179
-2.20334
-1.89717
-1.6361
-1.3485
-1.05244
-0.752809
-0.451896
-0.150635
69.7607
69.7685
69.7857
69.8123
69.8485
69.8919
69.9482
69.9987
70.0691
70.1169
70.1828
70.2167
70.2535
-2.8495
-2.70832
-2.67931
-2.36007
-2.21148
-1.90422
-1.64241
-1.35383
-1.05668
-0.7559
-0.453778
-0.15127
69.7581
69.766
69.7832
69.8098
69.8462
69.8901
69.9468
69.9986
70.0704
70.1212
70.1882
70.2244
70.2621
-2.85943
-2.71816
-2.68946
-2.36914
-2.22041
-1.91197
-1.64935
-1.3597
-1.06137
-0.759316
-0.455858
-0.151974
69.7555
69.7634
69.7806
69.8072
69.8438
69.888
69.9452
69.9984
70.0719
70.1258
70.1942
70.2329
70.2717
-2.87004
-2.72864
-2.70028
-2.37885
-2.22998
-1.9203
-1.65684
-1.36604
-1.06643
-0.763007
-0.458107
-0.152734
69.7529
69.7608
69.7779
69.8045
69.8412
69.8859
69.9435
69.9982
70.0735
70.1306
70.2008
70.2423
70.2824
-2.88113
-2.73958
-2.71158
-2.38904
-2.24004
-1.92908
-1.66474
-1.37274
-1.0718
-0.766919
-0.460492
-0.153542
69.7504
69.7582
69.7752
69.8018
69.8386
69.8836
69.9418
69.9979
70.0751
70.1356
70.2079
70.2524
70.2941
-2.89252
-2.75078
-2.72316
-2.39952
-2.25043
-1.93817
-1.67293
-1.37971
-1.07737
-0.770994
-0.462978
-0.154384
69.748
69.7556
69.7726
69.7991
69.8359
69.8813
69.9399
69.9976
70.0769
70.1407
70.2156
70.2634
70.307
-2.90401
-2.76205
-2.73484
-2.41014
-2.26098
-1.94742
-1.6813
-1.38682
-1.08308
-0.775167
-0.465526
-0.155247
69.7456
69.7532
69.77
69.7964
69.8332
69.8789
69.9381
69.9972
70.0788
70.146
70.2239
70.2751
70.321
-2.9154
-2.77321
-2.74641
-2.42072
-2.27151
-1.95669
-1.68969
-1.39398
-1.08883
-0.779373
-0.468096
-0.156119
69.7435
69.751
69.7676
69.7938
69.8306
69.8766
69.9363
69.9969
70.0807
70.1514
70.2328
70.2876
70.3361
-2.92651
-2.78407
-2.7577
-2.43108
-2.28186
-1.96581
-1.69798
-1.40106
-1.09452
-0.783544
-0.470646
-0.156984
69.7415
69.7489
69.7653
69.7914
69.8281
69.8743
69.9346
69.9966
70.0828
70.157
70.2421
70.3008
70.3522
-2.93716
-2.79448
-2.76852
-2.44106
-2.29185
-1.97465
-1.70603
-1.40795
-1.10007
-0.787611
-0.473134
-0.157829
69.7398
69.747
69.7632
69.7891
69.8257
69.8721
69.933
69.9964
70.0849
70.1626
70.2517
70.3144
70.3691
-2.9472
-2.80428
-2.77872
-2.45051
-2.30133
-1.98307
-1.7137
-1.41453
-1.10537
-0.791504
-0.475518
-0.158639
69.7384
69.7454
69.7613
69.787
69.8235
69.8701
69.9315
69.9962
70.0871
70.1681
70.2614
70.3283
70.3864
-2.95649
-2.81332
-2.78814
-2.45928
-2.31016
-1.99092
-1.72088
-1.42069
-1.11035
-0.795158
-0.477756
-0.1594
69.7373
69.7441
69.7597
69.7852
69.8216
69.8683
69.9301
69.9962
70.0892
70.1734
70.271
70.3419
70.4037
-2.96491
-2.8215
-2.79665
-2.46725
-2.31819
-1.99807
-1.72744
-1.42632
-1.1149
-0.79851
-0.479811
-0.160099
69.7367
69.7431
69.7583
69.7836
69.8198
69.8667
69.929
69.9962
70.0912
70.1784
70.2799
70.3549
70.4202
-2.97235
-2.82869
-2.80414
-2.4743
-2.3253
-2.00443
-1.73327
-1.43135
-1.11897
-0.801501
-0.481646
-0.160724
69.7366
69.7424
69.7572
69.7822
69.8184
69.8653
69.928
69.9962
70.093
70.1828
70.288
70.3667
70.4354
-2.97874
-2.83485
-2.81052
-2.48033
-2.33139
-2.00988
-1.73829
-1.43567
-1.12247
-0.804079
-0.483228
-0.161263
69.7364
69.742
69.7564
69.7812
69.8172
69.8643
69.9272
69.9963
70.0946
70.1865
70.2947
70.3768
70.4485
-2.98401
-2.83986
-2.81569
-2.48525
-2.33637
-2.01433
-1.7424
-1.43922
-1.12535
-0.806198
-0.484529
-0.161706
69.7387
69.7423
69.7559
69.7805
69.8164
69.8634
69.9266
69.9964
70.0958
70.1893
70.2998
70.3848
70.459
-2.9881
-2.84376
-2.81962
-2.48902
-2.34019
-2.01773
-1.74555
-1.44193
-1.12755
-0.807821
-0.485526
-0.162045
69.7394
69.7421
69.7554
69.7799
69.8158
69.8628
69.9261
69.9964
70.0966
70.1913
70.3027
70.3902
70.4664
-2.99096
-2.84625
-2.82225
-2.49155
-2.34277
-2.02001
-1.74769
-1.44377
-1.12904
-0.80892
-0.4862
-0.162275
69.7454
69.743
69.7553
69.7798
69.8156
69.8627
69.926
69.9964
70.0972
70.1926
70.3042
70.392
70.4701
-2.99251
-2.84798
-2.82358
-2.49289
-2.34412
-2.02112
-1.74878
-1.4447
-1.12979
-0.809475
-0.486541
-0.16239
69.7724
69.772
69.7863
69.8117
69.8463
69.8871
69.9411
69.9855
70.0507
70.0858
70.1537
70.179
70.2115
-2.85437
-2.7095
-2.67496
-2.35261
-2.19833
-1.89019
-1.62587
-1.3373
-1.04184
-0.744086
-0.446093
-0.148496
69.7658
69.7704
69.7858
69.8113
69.8461
69.887
69.9411
69.9859
70.0511
70.0876
70.152
70.1794
70.213
-2.85516
-2.71051
-2.67654
-2.35389
-2.1996
-1.89139
-1.62687
-1.33815
-1.04251
-0.744575
-0.446387
-0.148595
69.7639
69.7693
69.785
69.8105
69.8454
69.8865
69.9407
69.9859
70.0515
70.0892
70.1536
70.1811
70.2156
-2.85777
-2.71367
-2.67978
-2.3567
-2.20233
-1.89377
-1.62896
-1.33991
-1.04391
-0.745586
-0.447
-0.148801
69.7603
69.7672
69.7835
69.8092
69.8443
69.8857
69.9401
69.9859
70.052
70.0913
70.1551
70.1838
70.219
-2.86206
-2.71818
-2.68459
-2.36087
-2.20642
-1.8973
-1.63208
-1.34254
-1.046
-0.747103
-0.447921
-0.149112
69.7577
69.7651
69.7818
69.8077
69.8429
69.8846
69.9391
69.9858
70.0525
70.0938
70.1572
70.1874
70.2231
-2.86793
-2.72426
-2.6909
-2.36638
-2.21182
-1.90196
-1.63621
-1.34601
-1.04876
-0.749108
-0.449139
-0.149523
69.755
69.7628
69.7798
69.8058
69.8411
69.8831
69.9379
69.9856
70.0531
70.0965
70.16
70.1919
70.2281
-2.87522
-2.73163
-2.69858
-2.37311
-2.21843
-1.90765
-1.64128
-1.35029
-1.05215
-0.751576
-0.45064
-0.15003
69.7523
69.7604
69.7775
69.8036
69.8391
69.8814
69.9365
69.9852
70.0537
70.0994
70.1632
70.197
70.2338
-2.88379
-2.74025
-2.7075
-2.38098
-2.22615
-1.91432
-1.64723
-1.3553
-1.05614
-0.754478
-0.452406
-0.150626
69.7496
69.7579
69.775
69.8012
69.8368
69.8795
69.9348
69.9845
70.0542
70.1024
70.1668
70.2027
70.2403
-2.89347
-2.74989
-2.7175
-2.38983
-2.23487
-1.92185
-1.65396
-1.36098
-1.06067
-0.757776
-0.454413
-0.151305
69.747
69.7553
69.7724
69.7986
69.8343
69.8772
69.9329
69.9837
70.0547
70.1055
70.1706
70.2089
70.2474
-2.90406
-2.76041
-2.7284
-2.39953
-2.24443
-1.93015
-1.66139
-1.36726
-1.06568
-0.761424
-0.456636
-0.152057
69.7443
69.7526
69.7697
69.7958
69.8315
69.8748
69.9307
69.9827
70.0551
70.1084
70.1747
70.2154
70.255
-2.91536
-2.7716
-2.74
-2.4099
-2.25469
-1.93906
-1.66939
-1.37404
-1.0711
-0.765373
-0.459042
-0.152872
69.7417
69.7499
69.7669
69.7929
69.8287
69.8722
69.9284
69.9814
70.0554
70.1113
70.1787
70.2222
70.263
-2.92716
-2.78325
-2.7521
-2.42079
-2.26548
-1.94847
-1.67786
-1.38123
-1.07684
-0.769565
-0.461599
-0.153738
69.7391
69.7472
69.7641
69.79
69.8257
69.8694
69.9259
69.9799
70.0556
70.1139
70.1829
70.229
70.2714
-2.93925
-2.79517
-2.7645
-2.43199
-2.27662
-1.95821
-1.68665
-1.3887
-1.08283
-0.773937
-0.464268
-0.154642
69.7366
69.7446
69.7613
69.7871
69.8227
69.8665
69.9232
69.9782
70.0557
70.1163
70.187
70.236
70.2801
-2.95141
-2.80714
-2.77698
-2.44333
-2.28794
-1.96814
-1.69562
-1.39634
-1.08896
-0.778422
-0.467007
-0.155571
69.7342
69.7421
69.7586
69.7842
69.8196
69.8636
69.9205
69.9764
70.0556
70.1184
70.1911
70.2429
70.2891
-2.96343
-2.81897
-2.78933
-2.45462
-2.29924
-1.97808
-1.70464
-1.40404
-1.09514
-0.782948
-0.469774
-0.15651
69.732
69.7398
69.7561
69.7814
69.8166
69.8606
69.9178
69.9745
70.0556
70.1203
70.1952
70.2499
70.2984
-2.97512
-2.83047
-2.80136
-2.46567
-2.31034
-1.98788
-1.71355
-1.41166
-1.10128
-0.787442
-0.472524
-0.157444
69.73
69.7376
69.7536
69.7787
69.8137
69.8577
69.915
69.9726
70.0554
70.1222
70.1994
70.2571
70.3081
-2.9863
-2.84146
-2.81288
-2.47631
-2.32106
-1.99738
-1.72221
-1.41909
-1.10726
-0.791829
-0.475209
-0.158357
69.7283
69.7357
69.7514
69.7762
69.811
69.8549
69.9124
69.9707
70.0553
70.1239
70.2036
70.2642
70.318
-2.99681
-2.85177
-2.82371
-2.48638
-2.33123
-2.00642
-1.73047
-1.42618
-1.11298
-0.796034
-0.477786
-0.159234
69.7268
69.734
69.7494
69.7739
69.8085
69.8523
69.91
69.9689
70.0552
70.1256
70.2078
70.2714
70.328
-3.00651
-2.86127
-2.8337
-2.49571
-2.34069
-2.01485
-1.7382
-1.43283
-1.11835
-0.799984
-0.480208
-0.160058
69.7257
69.7326
69.7477
69.7718
69.8062
69.8499
69.9077
69.9673
70.0551
70.1271
70.2118
70.2783
70.3376
-3.01527
-2.86985
-2.84271
-2.50418
-2.3493
-2.02254
-1.74527
-1.43892
-1.12328
-0.80361
-0.482433
-0.160816
69.725
69.7315
69.7462
69.7701
69.8041
69.8478
69.9057
69.9658
70.055
70.1285
70.2154
70.2846
70.3465
-3.023
-2.87737
-2.85062
-2.51166
-2.35691
-2.02937
-1.75156
-1.44435
-1.12768
-0.806849
-0.484421
-0.161494
69.7248
69.7309
69.7451
69.7686
69.8024
69.846
69.9039
69.9645
70.0549
70.1296
70.2184
70.2899
70.3542
-3.02961
-2.8838
-2.85735
-2.51806
-2.36344
-2.03522
-1.75696
-1.44902
-1.13147
-0.809642
-0.486137
-0.162079
69.7246
69.7304
69.7441
69.7674
69.801
69.8445
69.9025
69.9635
70.0548
70.1304
70.2204
70.2942
70.3604
-3.03505
-2.889
-2.8628
-2.52328
-2.36877
-2.04001
-1.7614
-1.45285
-1.13458
-0.811939
-0.487549
-0.162561
69.7268
69.7307
69.7436
69.7666
69.8
69.8433
69.9014
69.9627
70.0546
70.131
70.2216
70.297
70.3646
-3.03926
-2.89306
-2.86694
-2.52727
-2.37285
-2.04366
-1.76479
-1.45579
-1.13697
-0.813699
-0.488631
-0.16293
69.7275
69.7305
69.7431
69.7659
69.7993
69.8425
69.9005
69.962
70.0544
70.1311
70.2217
70.2984
70.3668
-3.0422
-2.89564
-2.86971
-2.52994
-2.37561
-2.0461
-1.76709
-1.45778
-1.13858
-0.814891
-0.489364
-0.16318
69.7335
69.7314
69.743
69.7658
69.799
69.8423
69.9002
69.9618
70.0544
70.1316
70.2209
70.292
70.3676
-3.04378
-2.8974
-2.8711
-2.53135
-2.37706
-2.0473
-1.76827
-1.45878
-1.1394
-0.815494
-0.489735
-0.163306
69.7596
69.7594
69.7737
69.7986
69.8328
69.8731
69.9263
69.9707
70.0354
70.0715
70.1384
70.1655
70.1986
-2.90722
-2.75834
-2.71921
-2.38666
-2.22429
-1.90927
-1.63762
-1.34391
-1.04494
-0.745038
-0.446026
-0.148242
69.753
69.7579
69.7732
69.7982
69.8325
69.8729
69.9262
69.9709
70.0357
70.0732
70.1366
70.1658
70.2
-2.90812
-2.7595
-2.72093
-2.38806
-2.22566
-1.91056
-1.63869
-1.34482
-1.04566
-0.74556
-0.44634
-0.148347
69.751
69.7567
69.7723
69.7974
69.8317
69.8723
69.9257
69.9708
70.0359
70.0746
70.138
70.1673
70.2025
-2.91099
-2.76294
-2.72446
-2.3911
-2.22862
-1.91313
-1.64094
-1.3467
-1.04715
-0.746643
-0.446996
-0.148568
69.7475
69.7546
69.7708
69.796
69.8305
69.8713
69.9249
69.9705
70.0361
70.0763
70.139
70.1697
70.2055
-2.91568
-2.76787
-2.72971
-2.39561
-2.23304
-1.91694
-1.64431
-1.34953
-1.0494
-0.74827
-0.447983
-0.148901
69.7448
69.7525
69.769
69.7944
69.829
69.87
69.9237
69.97
70.0362
70.0783
70.1406
70.1728
70.2091
-2.92208
-2.77449
-2.7366
-2.40158
-2.23889
-1.92196
-1.64875
-1.35327
-1.05236
-0.750423
-0.449292
-0.149342
69.7421
69.7501
69.7669
69.7924
69.8271
69.8683
69.9221
69.9693
70.0362
70.0803
70.1424
70.1764
70.2133
-2.93001
-2.78251
-2.74497
-2.40887
-2.24605
-1.92811
-1.65422
-1.35787
-1.05602
-0.753079
-0.450906
-0.149888
69.7394
69.7476
69.7645
69.79
69.8248
69.8663
69.9203
69.9683
70.036
70.0822
70.1445
70.1805
70.218
-2.93933
-2.79187
-2.7547
-2.41738
-2.25443
-1.93532
-1.66064
-1.36328
-1.06032
-0.756205
-0.452809
-0.150531
69.7367
69.745
69.762
69.7875
69.8222
69.864
69.9181
69.9669
70.0357
70.0839
70.1466
70.1847
70.2229
-2.94983
-2.80233
-2.76559
-2.42697
-2.26388
-1.94347
-1.66792
-1.36942
-1.06521
-0.759763
-0.454975
-0.151263
69.7339
69.7423
69.7592
69.7847
69.8194
69.8613
69.9155
69.9652
70.0351
70.0854
70.1484
70.1888
70.2278
-2.9613
-2.81373
-2.77745
-2.43747
-2.27427
-1.95246
-1.67595
-1.37621
-1.07063
-0.763708
-0.457378
-0.152077
69.7312
69.7396
69.7564
69.7817
69.8164
69.8584
69.9127
69.963
70.0341
70.0863
70.1498
70.1925
70.2325
-2.97352
-2.82583
-2.79006
-2.4487
-2.28541
-1.96213
-1.68463
-1.38356
-1.07649
-0.767985
-0.459986
-0.15296
69.7285
69.7368
69.7534
69.7786
69.8132
69.8552
69.9095
69.9605
70.0328
70.0865
70.1505
70.1955
70.2366
-2.98624
-2.83841
-2.80321
-2.46049
-2.29714
-1.97234
-1.69381
-1.39136
-1.08273
-0.772534
-0.462761
-0.153901
69.7259
69.734
69.7505
69.7755
69.8098
69.8518
69.9061
69.9575
70.0311
70.086
70.1504
70.1974
70.2398
-2.99923
-2.85126
-2.81666
-2.47261
-2.30926
-1.98293
-1.70336
-1.39948
-1.08923
-0.777287
-0.465664
-0.154885
69.7233
69.7313
69.7476
69.7723