/*--------------------------------*- C++ -*----------------------------------*\
  =========                 |
  \\      /  F ield         | OpenFOAM: The Open Source CFD Toolbox
   \\    /   O peration     | Website:  https://openfoam.org
    \\  /    A nd           | Version:  11
     \\/     M anipulation  |
\*---------------------------------------------------------------------------*/
FoamFile
{
    format      ascii;
    class       volScalarField;
    location    "10";
    object      k;
}
// * * * * * * * * * * * * * * * * * * * * * * * * * * * * * * * * * * * * * //

dimensions      [0 2 -2 0 0 0 0];

internalField   nonuniform List<scalar> 
17196
(
0.00915156
0.00411935
0.00815904
0.039642
0.0499331
0.0533263
0.0556327
0.0596233
0.0609705
0.0654951
0.0719742
0.0743467
0.0763655
0.0752731
0.0685294
0.0594432
0.0476417
0.0446811
0.0349584
0.0477781
0.0624205
0.0732511
0.0750717
0.0828304
0.0802432
0.00836114
0.00429301
0.0210487
0.051357
0.0613028
0.0631451
0.0665961
0.0724473
0.0769213
0.0825035
0.0932676
0.104061
0.111022
0.111118
0.104
0.095072
0.0773725
0.0655572
0.0615437
0.0666454
0.0792909
0.0929163
0.0989959
0.10417
0.100212
0.0082933
0.00418299
0.0288436
0.0473995
0.0510812
0.051133
0.0524511
0.0577212
0.0542749
0.0689291
0.093854
0.113113
0.123657
0.138594
0.128258
0.102463
0.0846152
0.0748675
0.0714107
0.070425
0.0757983
0.0837619
0.0873739
0.088928
0.0933724
0.00847374
0.00433045
0.0309496
0.0433372
0.0446205
0.0433869
0.0420579
0.0596203
0.0776728
0.0885754
0.104856
0.101241
0.116745
0.122684
0.104309
0.0855347
0.0723264
0.0609082
0.0535418
0.0439737
0.047061
0.0539782
0.0612262
0.0596454
0.0612738
0.00839323
0.0048769
0.0311366
0.0383806
0.0374029
0.0398899
0.0461368
0.061749
0.084083
0.0981092
0.110467
0.099452
0.0852381
0.0976172
0.0806837
0.0629461
0.0546849
0.0456627
0.0364582
0.0341477
0.0340106
0.0332449
0.0352893
0.0312751
0.0285824
0.00853603
0.0054525
0.0299955
0.0355684
0.036228
0.0405971
0.050791
0.0611483
0.0875649
0.0988737
0.109176
0.101258
0.0708014
0.0638493
0.0561257
0.045943
0.041807
0.0354625
0.0318035
0.0341199
0.0366169
0.0349377
0.0330723
0.0314599
0.0278278
0.00850927
0.00691563
0.029486
0.0337109
0.0358854
0.0415565
0.050872
0.0634871
0.0781335
0.0843439
0.0835865
0.0869088
0.0638277
0.0485035
0.0419689
0.0346627
0.0328224
0.0302295
0.0346083
0.0396156
0.0400219
0.0386442
0.0368989
0.0346347
0.0274108
0.00864773
0.00741374
0.0284387
0.0331823
0.035682
0.0421811
0.0511735
0.0641098
0.0752283
0.068247
0.0664365
0.0706981
0.0534925
0.0375712
0.0315175
0.0279642
0.0260148
0.0291811
0.0377467
0.0410616
0.040859
0.0413051
0.0394469
0.0359127
0.0299451
0.00910329
0.00620595
0.0275666
0.0330693
0.0347474
0.0436168
0.0514619
0.0600986
0.068534
0.0558935
0.0523327
0.0549104
0.0420635
0.0296867
0.0281852
0.0267516
0.0284292
0.0375008
0.0398117
0.0413018
0.042523
0.0430166
0.0413986
0.0382146
0.0275993
0.00968145
0.00576413
0.0244318
0.032839
0.0346262
0.0443221
0.0523137
0.0584672
0.0614564
0.0489362
0.0404291
0.0389404
0.0309435
0.025609
0.0257377
0.0264316
0.029634
0.0380988
0.0401733
0.041218
0.0423619
0.0429634
0.0419166
0.0395707
0.029709
0.00868657
0.006193
0.0230386
0.0327883
0.0350659
0.0445677
0.051633
0.0578116
0.0533055
0.0411315
0.0359846
0.0326474
0.0271627
0.0247057
0.0249906
0.0302233
0.0338273
0.0412828
0.0375684
0.0382437
0.040671
0.042029
0.041917
0.0377588
0.0252252
0.00889805
0.00587466
0.0210887
0.0327385
0.0356832
0.0455107
0.0524798
0.0567897
0.0493895
0.0396209
0.0316365
0.0296254
0.0244408
0.0242942
0.0275198
0.0350893
0.0419131
0.040786
0.0365205
0.0359634
0.0380578
0.0405971
0.0401888
0.0356287
0.0269027
0.0098312
0.00494073
0.0179378
0.0319496
0.038572
0.0463515
0.0534708
0.0565735
0.047495
0.0392834
0.0304078
0.0260957
0.0226454
0.0260535
0.0309046
0.0374197
0.0408381
0.0395403
0.0356262
0.0332788
0.0349921
0.0379393
0.0377036
0.0335873
0.0233047
0.0094219
0.00548936
0.0179488
0.032905
0.0414075
0.0502369
0.0543937
0.0557823
0.0463109
0.0393187
0.0283025
0.0249393
0.0228401
0.0261079
0.0328506
0.037755
0.0419879
0.0377863
0.0349914
0.0318352
0.031826
0.0340729
0.0346763
0.0305452
0.0262716
0.00963544
0.00592063
0.0174579
0.0320797
0.0431437
0.0513282
0.0563927
0.0551861
0.0441488
0.0369343
0.0287451
0.0243432
0.0231985
0.0277415
0.0336936
0.0363979
0.0375438
0.0341592
0.0326442
0.0297722
0.028128
0.0299209
0.0309983
0.0293494
0.0262422
0.00912226
0.00674523
0.015524
0.029762
0.0415328
0.0524974
0.0563887
0.0542641
0.0424161
0.0334428
0.0287044
0.024141
0.0233326
0.0268387
0.0333142
0.0360375
0.035579
0.0312249
0.0294387
0.0287958
0.0253046
0.0259196
0.0275685
0.0269001
0.0258154
0.00906132
0.00851127
0.0146927
0.0274229
0.0400805
0.0526116
0.0562607
0.0532278
0.0419769
0.0322672
0.028616
0.0242553
0.0235844
0.0288669
0.0341386
0.0352648
0.0327457
0.0274387
0.0251547
0.0248601
0.023853
0.0232969
0.0244009
0.0241215
0.0244418
0.00909969
0.0119179
0.0136437
0.0263975
0.0373968
0.0485266
0.0522331
0.0500605
0.0402238
0.0304387
0.0269464
0.0232868
0.0231922
0.0285856
0.0319043
0.0350238
0.0313756
0.024714
0.0217409
0.0221949
0.0230021
0.021427
0.02213
0.0232704
0.0235917
0.00912549
0.0156544
0.0141778
0.0264961
0.0349648
0.043264
0.0462593
0.0436996
0.0368252
0.027983
0.0249885
0.0219201
0.021859
0.0287434
0.0313352
0.0377503
0.0308372
0.0237337
0.0198335
0.0201824
0.0205681
0.0200914
0.0202984
0.0228872
0.0227062
0.00903153
0.0197331
0.0177856
0.0255887
0.0334468
0.0388881
0.040351
0.0369466
0.0317322
0.0249617
0.0228133
0.0208949
0.0217163
0.024982
0.0359273
0.0417856
0.0342926
0.0235806
0.018806
0.0174774
0.0179243
0.0186783
0.0198933
0.0208293
0.0219622
0.00894887
0.0225431
0.0259054
0.0255178
0.0323046
0.0353954
0.0345056
0.0322596
0.0287268
0.0230219
0.0222413
0.0299124
0.0449201
0.0333127
0.0499345
0.0505083
0.0356196
0.0256537
0.0179695
0.0162747
0.0165448
0.0166316
0.0178711
0.0210839
0.0220088
0.0086172
0.0205669
0.0292712
0.024246
0.0311175
0.0313508
0.0306712
0.0277121
0.0223322
0.0193541
0.0207037
0.0571966
0.086333
0.0740055
0.0672319
0.0616222
0.0458554
0.0262222
0.0179376
0.01594
0.0149012
0.0150058
0.0164244
0.0215889
0.0226808
0.0083467
0.0251426
0.0300665
0.025904
0.0304413
0.0293556
0.0290827
0.0277562
0.0394014
0.0858856
0.073991
0.0972657
0.122459
0.114826
0.0834553
0.0617494
0.0418446
0.0274478
0.0196981
0.0157099
0.0144522
0.0139151
0.015627
0.0217698
0.0228747
0.00809944
0.0202566
0.0346732
0.0301232
0.0306916
0.0311628
0.0333601
0.0501338
0.0765355
0.108963
0.137883
0.144737
0.120582
0.0921804
0.0653267
0.0453568
0.0307618
0.022262
0.0190878
0.0162876
0.0155041
0.0156111
0.0166084
0.0214479
0.0224258
0.00822082
0.0204848
0.0371691
0.0418432
0.0430723
0.0434309
0.055864
0.0752074
0.104282
0.132024
0.131209
0.131653
0.0913927
0.0652902
0.0499498
0.0387866
0.0309301
0.0246047
0.0219655
0.0189973
0.018932
0.0188444
0.0203758
0.0212363
0.0196161
0.00951536
0.00605004
0.00780393
0.035479
0.0400843
0.0417172
0.043336
0.0449446
0.0467603
0.0500187
0.0553352
0.0588413
0.0629828
0.0631646
0.061788
0.0618987
0.0496857
0.0500761
0.0933164
0.121231
0.135694
0.138413
0.149221
0.155388
0.158322
0.00390617
0.00661628
0.0276486
0.0481476
0.062808
0.0616976
0.0684178
0.0767876
0.0829138
0.0912406
0.101059
0.116665
0.126995
0.14578
0.149157
0.151997
0.137252
0.121972
0.124108
0.17857
0.202516
0.204081
0.205713
0.21931
0.233481
0.0040997
0.00678432
0.0430774
0.0532136
0.0594628
0.0506333
0.0485352
0.0574126
0.0546942
0.0719445
0.130177
0.165956
0.203413
0.227528
0.206652
0.191987
0.162844
0.121433
0.180663
0.184902
0.178643
0.157152
0.151715
0.188278
0.213987
0.00411705
0.00622829
0.0449365
0.0498294
0.0465763
0.0388073
0.0360359
0.0641163
0.0840617
0.114136
0.149699
0.167849
0.18388
0.221718
0.200284
0.184157
0.161291
0.138647
0.155347
0.113178
0.0934028
0.085457
0.0763146
0.102284
0.114886
0.00414763
0.00498046
0.0388111
0.0440274
0.0378424
0.0278593
0.0445623
0.0733031
0.105547
0.125655
0.14297
0.152364
0.155139
0.180227
0.180388
0.170799
0.174088
0.176074
0.122992
0.0781045
0.0728048
0.0658432
0.0655977
0.0610022
0.0346616
0.00419893
0.00432276
0.0308802
0.03824
0.0328306
0.0354887
0.0522919
0.0643116
0.109761
0.128313
0.124697
0.120973
0.127099
0.138311
0.167011
0.195964
0.195658
0.161947
0.0937973
0.0648968
0.0652594
0.0597869
0.060603
0.0600183
0.0341534
0.00420362
0.00447506
0.025687
0.0390368
0.0319531
0.0333855
0.0497121
0.0710905
0.103558
0.113662
0.116899
0.108937
0.112951
0.123881
0.19283
0.214571
0.182738
0.103459
0.0726188
0.0588618
0.054937
0.0527594
0.0605958
0.0620898
0.0370276
0.00419119
0.00458188
0.0237915
0.0390982
0.032068
0.032893
0.0540366
0.0744726
0.0938995
0.0912741
0.0981823
0.109127
0.102035
0.118196
0.175088
0.231041
0.145784
0.0723509
0.0602173
0.0548489
0.0512032
0.0520071
0.0660144
0.0635283
0.038646
0.00417766
0.00437126
0.0205377
0.0425761
0.0339347
0.0364027
0.0508087
0.066931
0.0855718
0.0853027
0.0858084
0.0978716
0.092843
0.119282
0.19304
0.183142
0.100189
0.0555294
0.0423586
0.0440864
0.0491561
0.0530507
0.0636358
0.0560134
0.0326016
0.00422641
0.00431169
0.0187468
0.0463045
0.0360097
0.037274
0.0507897
0.066521
0.076516
0.0778714
0.0794904
0.0832037
0.091551
0.117903
0.167193
0.128284
0.0670083
0.0438775
0.0362082
0.0347448
0.0450406
0.0549681
0.0572174
0.0462408
0.0249504
0.00402432
0.00449225
0.0228521
0.0479633
0.0402152
0.0380337
0.0505187
0.0688903
0.0749297
0.0740353
0.0730618
0.0759393
0.088509
0.116802
0.159443
0.0813087
0.0485699
0.0359013
0.0343102
0.028246
0.0364718
0.052979
0.052697
0.0333565
0.0159268
0.00399987
0.00436514
0.0287485
0.0503282
0.0478071
0.0444085
0.0583239
0.0719193
0.0740866
0.0750285
0.0668145
0.0708309
0.0880316
0.117576
0.129896
0.0749191
0.0458153
0.0330756
0.0351235
0.0239976
0.0251789
0.0387513
0.0378335
0.0228884
0.0125277
0.0040846
0.00396809
0.0247301
0.0555764
0.0537935
0.0570466
0.0669047
0.0740281
0.0787651
0.0768178
0.0632686
0.0673068
0.0895363
0.119888
0.116076
0.0649351
0.0450208
0.0318183
0.0322506
0.0245269
0.0185751
0.0230881
0.0280658
0.0158077
0.00964825
0.00392371
0.00360462
0.0184719
0.0651166
0.0614146
0.0741028
0.0734768
0.0756638
0.0864823
0.0742048
0.0596934
0.0601062
0.111039
0.121686
0.124667
0.078127
0.0471211
0.0354104
0.0338298
0.0250175
0.0145436
0.0153024
0.0226708
0.0130268
0.0104182
0.00382162
0.00384331
0.0167772
0.0682995
0.0662613
0.0851185
0.0843869
0.0820418
0.0865195
0.0775566
0.0570401
0.0552785
0.101009
0.140621
0.132408
0.0762567
0.0453031
0.0350677
0.0304455
0.0243308
0.0150584
0.0110076
0.0171103
0.0120204
0.0113595
0.00355546
0.00412145
0.0153799
0.0666262
0.0697869
0.0953889
0.102783
0.0944801
0.0864162
0.0728772
0.0532505
0.0509145
0.108838
0.15145
0.131195
0.0805896
0.055064
0.0333448
0.0281756
0.0286117
0.0159266
0.010975
0.013191
0.0101001
0.0107842
0.0032539
0.00652686
0.0159641
0.0578515
0.068054
0.0998701
0.105316
0.0962499
0.0850956
0.0696467
0.0504573
0.0496332
0.107447
0.129194
0.129238
0.0843459
0.0539349
0.0343398
0.0260463
0.0256211
0.019405
0.0122768
0.0110642
0.00974866
0.00840763
0.00307794
0.0103392
0.0324183
0.0485985
0.0601103
0.0970593
0.110048
0.094555
0.083409
0.0619768
0.0464107
0.0462487
0.101313
0.127818
0.138238
0.0886636
0.0563481
0.036193
0.026547
0.0235246
0.0219838
0.0147241
0.0115561
0.0106386
0.0120681
0.00312177
0.0210803
0.043884
0.0560527
0.0559658
0.0799161
0.10296
0.0870081
0.0737589
0.0581202
0.0424184
0.0444287
0.0855418
0.125578
0.151267
0.120388
0.0662521
0.0389953
0.0267511
0.0220497
0.0217473
0.0180316
0.0131593
0.0106581
0.0120487
0.00341521
0.0421446
0.0574823
0.0589509
0.0572824
0.068276
0.0845085
0.0719523
0.0600724
0.0496107
0.0379306
0.0452792
0.0932322
0.136213
0.169547
0.130569
0.0756989
0.0417948
0.0254759
0.0215736
0.0205937
0.0185324
0.0163489
0.0140404
0.0139973
0.00389138
0.0708119
0.0825944
0.0736133
0.0537305
0.0602375
0.0627015
0.057719
0.0529555
0.0441931
0.036168
0.0766981
0.112378
0.189546
0.180961
0.122737
0.0795067
0.0450872
0.0252925
0.0223345
0.021272
0.0183769
0.0174877
0.0164129
0.0158815
0.00432688
0.101458
0.114334
0.0828677
0.056426
0.0562411
0.0605772
0.0574009
0.0526151
0.0436701
0.056656
0.148277
0.189524
0.241326
0.190795
0.144863
0.0859294
0.0495852
0.0263673
0.0212998
0.020451
0.0200618
0.0182505
0.0169459
0.0157838
0.00436065
0.117327
0.112735
0.160729
0.141093
0.100731
0.0940061
0.0981188
0.0776136
0.0867386
0.150424
0.23728
0.277195
0.255533
0.195782
0.128382
0.0774306
0.0419742
0.0259141
0.0163908
0.0146199
0.0132878
0.0148867
0.0162817
0.0177215
0.0041267
0.0978725
0.100598
0.119128
0.150187
0.105205
0.1092
0.130847
0.141986
0.177653
0.223487
0.245111
0.220264
0.16525
0.117222
0.0749097
0.0521223
0.0389871
0.0270337
0.0187874
0.0139653
0.0137919
0.0136655
0.019882
0.0271225
0.00894836
0.0331477
0.0532374
0.063252
0.0761226
0.077021
0.094894
0.124964
0.156353
0.186977
0.19302
0.181132
0.12495
0.0900731
0.0659496
0.0507185
0.040701
0.0337821
0.0298716
0.0239542
0.0253967
0.026378
0.0263318
0.0246027
0.027076
0.00876033
0.00748112
0.0103942
0.0146714
0.0398007
0.0483994
0.0536061
0.0510976
0.0480318
0.0446286
0.0428282
0.0447771
0.048602
0.0606276
0.0750313
0.0894701
0.0961482
0.115816
0.147313
0.166805
0.164058
0.168445
0.176601
0.181581
0.190427
0.00295108
0.00471963
0.0223658
0.0330705
0.0413376
0.0339855
0.0355499
0.0346111
0.0409486
0.0479426
0.0560408
0.0729089
0.16241
0.25814
0.22263
0.189006
0.156773
0.181098
0.237908
0.228467
0.217865
0.212997
0.219755
0.238886
0.281731
0.00299515
0.00479794
0.0323339
0.0463899
0.0416549
0.0230773
0.0162027
0.0302476
0.0383522
0.0685244
0.155828
0.18912
0.24921
0.276585
0.267465
0.232452
0.189058
0.236554
0.1851
0.161074
0.148492
0.165087
0.199865
0.225826
0.2669
0.00298611
0.00286959
0.0307113
0.0457056
0.0394727
0.0167119
0.0213899
0.0541614
0.083924
0.137661
0.208052
0.225791
0.23919
0.263222
0.257137
0.25669
0.248169
0.17744
0.118545
0.0887149
0.100199
0.141148
0.170134
0.172385
0.173613
0.00297559
0.00229568
0.0214154
0.0384393
0.0331824
0.0179357
0.038425
0.0629715
0.105663
0.145015
0.180214
0.211996
0.201191
0.217974
0.216121
0.24201
0.238841
0.127328
0.0852292
0.0674519
0.0897599
0.126818
0.134742
0.0674587
0.01721
0.00312635
0.00214137
0.0146604
0.0299737
0.0295012
0.0319933
0.0487472
0.0564496
0.112311
0.138176
0.155913
0.181174
0.179509
0.186537
0.227279
0.244543
0.192439
0.0980663
0.0670872
0.060652
0.0768274
0.121039
0.11541
0.0567585
0.0064228
0.00312
0.00215109
0.00821281
0.0268476
0.0268462
0.0318112
0.0577586
0.0751714
0.111708
0.116011
0.128565
0.166054
0.159549
0.183642
0.200785
0.179308
0.127807
0.0808403
0.0559114
0.055948
0.062339
0.130732
0.101036
0.0540614
0.0089405
0.00310069
0.00228118
0.00588942
0.0256709
0.0242307
0.0310014
0.0591795
0.0749112
0.0974811
0.102246
0.115031
0.144209
0.145969
0.162276
0.210843
0.162687
0.111811
0.085305
0.0442753
0.0464121
0.0602257
0.104055
0.0849472
0.0485158
0.00698125
0.0030999
0.0022484
0.00637785
0.0260142
0.0240849
0.0325662
0.0561414
0.0720361
0.0902315
0.100069
0.106566
0.124951
0.145252
0.158279
0.175295
0.10846
0.0968044
0.089278
0.0383275
0.0392246
0.0641697
0.090154
0.0667139
0.0319096
0.00819488
0.00298844
0.00247423
0.0111151
0.0287378
0.025137
0.0377287
0.0533477
0.0698189
0.0778919
0.100142
0.09964
0.108243
0.160804
0.156617
0.15627
0.108037
0.0631573
0.0854552
0.0351338
0.0306313
0.0590877
0.0703385
0.0502006
0.021824
0.00719862
0.00303395
0.00246653
0.017548
0.0341452
0.0279911
0.0323268
0.0510007
0.0687537
0.0794281
0.101683
0.0971502
0.0997499
0.144028
0.174939
0.155494
0.085605
0.0594393
0.0797657
0.0375047
0.0205077
0.0361339
0.041378
0.0381542
0.0103239
0.00523537
0.00296089
0.00222011
0.021837
0.0436026
0.0359823
0.0369528
0.0465328
0.0569811
0.0743503
0.105664
0.093564
0.0939603
0.148971
0.164672
0.141828
0.0789228
0.0505289
0.0705742
0.0344029
0.0156544
0.0148992
0.0186994
0.0218578
0.00643819
0.00453597
0.00296935
0.00238756
0.022114
0.0497458
0.0477063
0.049131
0.0546601
0.0601042
0.0839092
0.110669
0.100401
0.0912408
0.147285
0.175035
0.144418
0.0814154
0.0557923
0.0536018
0.0436731
0.0165933
0.0061869
0.00688691
0.00718677
0.00509422
0.00414382
0.00295181
0.00225236
0.0184807
0.0529535
0.0573751
0.0640304
0.0708298
0.0736494
0.0979734
0.113547
0.0969064
0.0912728
0.12621
0.175591
0.141224
0.0898556
0.0571734
0.0511947
0.0462586
0.0194239
0.00560184
0.00423538
0.00473815
0.00397856
0.0043118
0.002935
0.00256058
0.0181115
0.0533481
0.0658563
0.0654375
0.0781141
0.0829856
0.11253
0.114873
0.0972171
0.0916294
0.126332
0.178027
0.154582
0.101315
0.0641775
0.0444066
0.0534991
0.0261991
0.00667054
0.00326544
0.0029273
0.00282511
0.00457088
0.00291424
0.0035482
0.0107325
0.0639404
0.087449
0.0997735
0.118461
0.112966
0.106152
0.116619
0.102633
0.09309
0.140968
0.180137
0.174609
0.114754
0.0688383
0.0411505
0.0377706
0.0355734
0.0119463
0.00387422
0.00251095
0.00226729
0.00402236
0.00290978
0.00569958
0.0290877
0.0648025
0.0951423
0.104406
0.156681
0.117157
0.10727
0.116222
0.107981
0.0963486
0.139417
0.175232
0.168009
0.121452
0.068415
0.035747
0.0274733
0.031468
0.0226902
0.00654391
0.00299492
0.00284048
0.00478076
0.00291922
0.00803351
0.0451628
0.0959432
0.0972248
0.101796
0.167119
0.125264
0.108653
0.116602
0.120097
0.099886
0.125407
0.163238
0.161998
0.118789
0.0636237
0.0348542
0.024354
0.0247122
0.0240333
0.0162592
0.00585091
0.00409555
0.00413314
0.00298653
0.0128374
0.0815619
0.139325
0.121664
0.0971129
0.138347
0.131198
0.108475
0.111368
0.119708
0.100816
0.113083
0.149082
0.143443
0.108692
0.0639361
0.0328175
0.0238062
0.0218567
0.0218704
0.0209034
0.0144794
0.00761286
0.00540326
0.00307475
0.0237542
0.15162
0.207659
0.119934
0.132273
0.122586
0.110308
0.0929526
0.0983842
0.120368
0.110839
0.114982
0.14229
0.136981
0.0891041
0.0620883
0.0361983
0.0232655
0.0189037
0.0181873
0.0191513
0.0194959
0.0158456
0.0154936
0.00323256
0.0404796
0.205757
0.243499
0.221377
0.145426
0.114186
0.086527
0.0811064
0.0852043
0.106061
0.119122
0.124636
0.140836
0.133569
0.0934036
0.064446
0.0431191
0.0263348
0.0185132
0.0162943
0.0151879
0.0161815
0.0151755
0.018179
0.00334848
0.0574817
0.265885
0.33609
0.235178
0.150622
0.0997437
0.0813225
0.0726134
0.0867024
0.127419
0.160117
0.168842
0.167905
0.123563
0.0797407
0.0491521
0.0308636
0.020504
0.0153647
0.0123168
0.0111057
0.0114122
0.0126519
0.0127538
0.00344558
0.0752829
0.344906
0.379138
0.243818
0.168878
0.120446
0.121534
0.117707
0.186172
0.190909
0.219932
0.20637
0.166135
0.108509
0.0665081
0.0418782
0.0254839
0.0168359
0.0121986
0.010065
0.00990857
0.010064
0.0110807
0.0114694
0.00461884
0.0971968
0.199929
0.186043
0.188146
0.22497
0.225044
0.225014
0.236709
0.253991
0.242086
0.242164
0.199459
0.163895
0.102801
0.0619348
0.0390896
0.0254527
0.017952
0.0134927
0.0107289
0.00929652
0.00916008
0.0116593
0.0152996
0.00898827
0.0450153
0.0800153
0.0952825
0.113927
0.149744
0.190921
0.212705
0.224528
0.235588
0.207497
0.189597
0.144955
0.113792
0.0787403
0.055329
0.0412971
0.0350031
0.0291091
0.0275561
0.0267476
0.0260601
0.0231132
0.023738
0.0276801
0.00864537
0.0076188
0.00793793
0.0154989
0.0436161
0.0506633
0.0548386
0.0542182
0.0533455
0.0523206
0.0512323
0.0519545
0.0615449
0.0723035
0.0910462
0.129442
0.119082
0.139014
0.153291
0.157818
0.155677
0.160962
0.167166
0.16786
0.197288
0.00288225
0.00243039
0.0187614
0.0322272
0.030878
0.0191527
0.0199035
0.0205335
0.0292663
0.0479456
0.0620722
0.0759299
0.168419
0.251429
0.244296
0.212329
0.200193
0.185517
0.17929
0.18512
0.187347
0.194614
0.209934
0.243714
0.337209
0.00289119
0.00237809
0.0215211
0.0372997
0.0302006
0.0162471
0.0132813
0.0291612
0.0454038
0.0980014
0.266011
0.303137
0.308274
0.277093
0.223556
0.247511
0.22974
0.12039
0.0997978
0.104574
0.118865
0.171113
0.208965
0.291674
0.346422
0.00308324
0.00177935
0.0173869
0.0340237
0.0261706
0.0134056
0.0224869
0.0435919
0.0818184
0.159068
0.251442
0.269778
0.255413
0.220145
0.19881
0.273893
0.14146
0.077499
0.0735777
0.0797786
0.0967835
0.184241
0.218809
0.282631
0.139994
0.00311729
0.00145354
0.00688543
0.0248719
0.0207618
0.0171579
0.0382395
0.0524961
0.100016
0.156245
0.218691
0.238814
0.202376
0.19402
0.194596
0.241811
0.109878
0.0671912
0.0590715
0.0642468
0.0918873
0.195717
0.18446
0.0825378
0.00560685
0.00315159
0.00137309
0.00535974
0.0186472
0.0229276
0.0266062
0.0434748
0.0546033
0.101853
0.139517
0.16904
0.222637
0.18144
0.152535
0.190599
0.169104
0.0947245
0.06058
0.0491863
0.0599691
0.0979321
0.217881
0.102319
0.0210324
0.00357377
0.00313646
0.0014694
0.00355611
0.0165716
0.0243572
0.0407977
0.0743682
0.0808525
0.105508
0.111862
0.142931
0.201682
0.153307
0.160081
0.152275
0.121019
0.108774
0.0620372
0.0439549
0.060034
0.0969846
0.152564
0.0690054
0.0199063
0.00425714
0.00313907
0.00157042
0.00599724
0.0155428
0.0225888
0.0364912
0.0691624
0.0823373
0.0995439
0.0998447
0.131065
0.165024
0.141443
0.151029
0.130566
0.113047
0.106287
0.0563282
0.0415771
0.0564369
0.100566
0.109224
0.0505173
0.0173828
0.00414009
0.00313394
0.00165971
0.00825698
0.0201165
0.0217394
0.0436817
0.0583425
0.0693767
0.088264
0.108741
0.119962
0.135
0.135433
0.144814
0.116227
0.0943272
0.0984143
0.0636772
0.0412597
0.055388
0.0877647
0.0850965
0.0311936
0.0086741
0.00392251
0.00312852
0.00160835
0.0116923
0.0222475
0.0238764
0.0412347
0.0605362
0.0569638
0.0803185
0.102131
0.112865
0.115034
0.130506
0.142015
0.110301
0.0932369
0.0988276
0.0632842
0.0388318
0.0435667
0.0580821
0.0558236
0.0195535
0.0053847
0.00380838
0.00315386
0.00142879
0.016002
0.0285247
0.026896
0.0384232
0.0577278
0.0597551
0.0729044
0.107645
0.113217
0.10432
0.140172
0.133539
0.108006
0.072093
0.0825707
0.0671038
0.0360515
0.0281736
0.0347089
0.0274603
0.0082554
0.0038456
0.00377464
0.00309755
0.00162267
0.0182183
0.0373549
0.0343767
0.0438771
0.058155
0.0669301
0.0713134
0.118408
0.106198
0.0936534
0.142939
0.134083
0.112454
0.0772506
0.0581133
0.0787242
0.035125
0.0191844
0.0154377
0.0167533
0.00283727
0.00259404
0.00417882
0.00289681
0.0020386
0.0250816
0.0444826
0.0435645
0.0497007
0.0660257
0.0774634
0.0891197
0.121009
0.101166
0.0918408
0.123019
0.140051
0.133248
0.102987
0.0771803
0.0982467
0.0462779
0.0137647
0.00824564
0.00451586
0.00219545
0.00218861
0.00438139
0.00290981
0.00275468
0.0343121
0.0578232
0.0636856
0.067889
0.0819466
0.09151
0.10978
0.116042
0.0979227
0.0892486
0.116813
0.144533
0.193081
0.126953
0.0864557
0.0831455
0.0588212
0.0152774
0.00279872
0.00184054
0.00194057
0.00201646
0.00438355
0.00292116
0.00290048
0.039698
0.0829167
0.0805957
0.0975973
0.128085
0.116278
0.127101
0.113247
0.0983612
0.0893493
0.124708
0.154343
0.162605
0.109396
0.0793715
0.0748962
0.0792675
0.0272598
0.00435722
0.00182933
0.00151689
0.00197469
0.00431505
0.00291918
0.0135815
0.077177
0.1478
0.162111
0.170923
0.232361
0.194736
0.119424
0.10575
0.0989147
0.0925337
0.118059
0.154971
0.13959
0.0825633
0.0622358
0.0552352
0.0676212
0.0487831
0.011481
0.00267883
0.00177325
0.00194538
0.00418821
0.00296508
0.000562824
0.143463
0.296115
0.242345
0.208815
0.247986
0.275566
0.171116
0.109094
0.107312
0.099516
0.119742
0.159694
0.139446
0.0755998
0.0448301
0.0392096
0.0470515
0.0507315
0.0256253
0.00656913
0.00255532
0.00204659
0.00406309
0.00312823
0.0348121
0.223478
0.382487
0.302526
0.291056
0.259314
0.257776
0.189562
0.11722
0.0996402
0.109126
0.127794
0.150242
0.121432
0.0720949
0.041586
0.0312979
0.0344136
0.0388435
0.0354226
0.0196086
0.00508626
0.00368756
0.0039314
0.00365416
0.0723373
0.342915
0.437356
0.425537
0.340633
0.257063
0.21189
0.16894
0.125753
0.0996885
0.109018
0.127836
0.137001
0.104579
0.0677898
0.0409275
0.0269773
0.024844
0.0282963
0.0276827
0.0238139
0.0169027
0.00778337
0.00497424
0.00405219
0.0512543
0.387723
0.556631
0.487376
0.371427
0.252044
0.174416
0.13014
0.119874
0.102853
0.117193
0.12498
0.127444
0.106438
0.0664202
0.0369677
0.0269262
0.0216308
0.0220548
0.0238974
0.0231885
0.0238319
0.0199663
0.0128011
0.00492079
0.0407537
0.407976
0.571439
0.439507
0.276151
0.208245
0.146153
0.10379
0.110813
0.10271
0.115599
0.121469
0.120137
0.102756
0.0715871
0.0517126
0.0330914
0.0237428
0.0209932
0.020126
0.0199021
0.0191255
0.015788
0.0176995
0.00441648
0.100916
0.552407
0.636413
0.318459
0.220896
0.147731
0.131381
0.109183
0.123047
0.119738
0.139556
0.127034
0.109609
0.0860847
0.0574724
0.0389037
0.0280791
0.0210007
0.0164612
0.0136972
0.0128023
0.0128031
0.0134196
0.013643
0.00408671
0.0699669
0.519283
0.436342
0.262779
0.265798
0.218643
0.217153
0.191018
0.23214
0.219599
0.178419
0.156833
0.107267
0.0687122
0.0439885
0.0304678
0.0210369
0.0155238
0.0137775
0.011789
0.0109022
0.010421
0.0110583
0.011679
0.00465265
0.135604
0.329557
0.215132
0.179636
0.222569
0.268992
0.296381
0.290031
0.27623
0.251853
0.211773
0.160448
0.117175
0.0716304
0.0446461
0.0296714
0.0208246
0.0151871
0.0128337
0.0112435
0.0102999
0.00969973
0.0105972
0.0148672
0.008916
0.0551041
0.0927911
0.108307
0.129873
0.165997
0.206725
0.224511
0.237342
0.230971
0.211316
0.179773
0.126001
0.0910018
0.0613818
0.0432966
0.0343153
0.0302545
0.026262
0.0235258
0.0238892
0.0252908
0.0262891
0.0283952
0.028492
0.00993087
0.0067676
0.00856891
0.0252107
0.0442359
0.0506667
0.0527684
0.0519557
0.0534451
0.0525841
0.0518588
0.0550695
0.0674674
0.0821544
0.104191
0.159574
0.136038
0.119571
0.124033
0.129511
0.133663
0.143764
0.154648
0.15948
0.181658
0.00335095
0.00190258
0.0172113
0.034028
0.0196125
0.0103547
0.0106811
0.0140369
0.0270887
0.0649085
0.0931525
0.152089
0.278
0.30038
0.301332
0.201104
0.168818
0.140272
0.149585
0.141247
0.151248
0.175538
0.190273
0.221923
0.341243
0.00314064
0.00165354
0.0142974
0.0320698
0.0217004
0.0111425
0.0112284
0.0224984
0.0578251
0.22124
0.34526
0.306038
0.360601
0.211751
0.208607
0.154435
0.0973542
0.0668926
0.0681477
0.0857688
0.104073
0.145933
0.186135
0.288235
0.400255
0.00318896
0.00136074
0.00791523
0.0204211
0.0167345
0.0100511
0.0168637
0.0277522
0.105209
0.230014
0.235515
0.269995
0.215161
0.101589
0.136608
0.114191
0.0678839
0.0550296
0.0574065
0.0741614
0.100184
0.179089
0.2318
0.450846
0.0916898
0.00320112
0.00126739
0.00311212
0.0125744
0.0141218
0.0161789
0.0303789
0.0467114
0.119739
0.18494
0.24688
0.261607
0.194339
0.0881029
0.100679
0.0943107
0.0667883
0.0539019
0.0537064
0.0699064
0.114814
0.217223
0.203466
0.125909
0.00992829
0.00323037
0.00126925
0.00295717
0.00754248
0.0243227
0.0270887
0.0426305
0.0553565
0.110618
0.133524
0.16292
0.274575
0.171326
0.0806151
0.0988449
0.0938544
0.0629254
0.0531675
0.0535918
0.0724726
0.145613
0.197147
0.0565908
0.00691105
0.00366846
0.00323832
0.00131751
0.00442257
0.00944283
0.0222147
0.040212
0.084247
0.0905355
0.100347
0.102954
0.147166
0.228192
0.135159
0.0842299
0.097661
0.0779804
0.0618911
0.0525243
0.0522758
0.0870005
0.137671
0.125788
0.0230427
0.00563334
0.00395008
0.00325338
0.0013692
0.00721565
0.0124359
0.0220616
0.0373606
0.0650177
0.0864056
0.0909633
0.101792
0.144968
0.176323
0.111326
0.0856928
0.105118
0.0873172
0.0648096
0.0517906
0.0546921
0.0927472
0.120616
0.0832193
0.0150442
0.005965
0.00354767
0.00323257
0.00139616
0.0079181
0.0183092
0.0219868
0.0306589
0.0399593
0.0574228
0.0725301
0.100681
0.143147
0.133695
0.103306
0.0984757
0.114941
0.0951584
0.072378
0.0513434
0.0546697
0.0781083
0.0836758
0.0502752
0.0088517
0.00389004
0.00397855
0.00326176
0.001361
0.00999209
0.0181634
0.024643
0.0353889
0.0446367
0.0548964
0.0727147
0.105836
0.13462
0.105025
0.100565
0.107126
0.124407
0.115246
0.0940183
0.0527875
0.0469114
0.0573564
0.0541478
0.0308859
0.0048718
0.00285631
0.0041823
0.00323571
0.00152958
0.0136752
0.0206893
0.0228264
0.0386849
0.0493517
0.0629708
0.0808284
0.113798
0.120386
0.0971041
0.101355
0.11431
0.148629
0.128973
0.136904
0.0646816
0.0425916
0.0408349
0.0371439
0.0176109
0.00215652
0.00221851
0.00425958
0.00307186
0.00216248
0.0207421
0.0309743
0.0282681
0.0409833
0.056675
0.0692765
0.0892506
0.122076
0.107508
0.0914257
0.0987682
0.120814
0.140018
0.12683
0.247008
0.110894
0.0468864
0.0328798
0.0266918
0.0102313
0.00156657
0.00240338
0.00419687
0.00291278
0.00405254
0.0327983
0.0458103
0.0395997
0.0475656
0.0636064
0.0687399
0.0963583
0.120807
0.097795
0.0884256
0.0993871
0.127564
0.192113
0.1739
0.187213
0.24121
0.0570604
0.022862
0.00904613
0.00526415
0.00145028
0.00216182
0.00437175
0.00291998
0.0146999
0.0582045
0.072895
0.064273
0.0643691
0.0763662
0.0819016
0.0984063
0.11078
0.0898285
0.0904791
0.120264
0.16964
0.276398
0.281102
0.193533
0.263171
0.0842348
0.0293283
0.00539596
0.00271272
0.00160887
0.00193155
0.00432991
0.00273704
0.0580743
0.116121
0.129626
0.105065
0.107517
0.11404
0.100867
0.110954
0.115307
0.0876815
0.0939644
0.129816
0.163803
0.146065
0.156133
0.158757
0.169519
0.118496
0.0504905
0.00887331
0.00306426
0.00186339
0.00194586
0.00424456
0.00159667
0.126733
0.253807
0.250423
0.205477
0.175788
0.237102
0.21174
0.129292
0.109271
0.0826859
0.0912899
0.138326
0.125121
0.0854513
0.0772369
0.0922287
0.113182
0.136418
0.0727865
0.0218032
0.00494868
0.00235182
0.00216216
0.00418414
0.000220937
0.233904
0.405773
0.465065
0.432283
0.38835
0.328938
0.378525
0.251584
0.101088
0.0781559
0.081359
0.119881
0.0974294
0.0729399
0.063893
0.061687
0.0907194
0.118004
0.0952868
0.0432744
0.0125546
0.00367402
0.00278513
0.00404633
0.0355842
0.413272
0.560833
0.673029
0.617989
0.54306
0.423759
0.380446
0.403586
0.134577
0.0882822
0.081174
0.100371
0.0758796
0.0570638
0.0485271
0.0445209
0.0589758
0.0826309
0.0740499
0.0531039
0.0275375
0.00879697
0.00466356
0.00450111
0.0579745
0.653935
0.721513
0.749183
0.707733
0.564778
0.393775
0.292883
0.332475
0.194604
0.106142
0.0882267
0.0911644
0.0710589
0.0488907
0.0376085
0.0323411
0.0359348
0.0389247
0.0497565
0.0469506
0.0332757
0.0208507
0.0112533
0.00918344
0.00395037
0.727344
0.738274
0.741514
0.559969
0.434012
0.305184
0.210308
0.207253
0.177829
0.130813
0.10843
0.0943713
0.0716697
0.047231
0.0338295
0.0279065
0.0257173
0.0260511
0.0332814
0.0338323
0.0280656
0.019851
0.0111582
0.0118879
0.0301796
0.7041
0.717686
0.578412
0.400316
0.33476
0.251692
0.180389
0.162108
0.160076
0.13501
0.117545
0.0985264
0.0855017
0.0574547
0.0387247
0.0307307
0.0280663
0.0256851
0.0258455