/*--------------------------------*- C++ -*----------------------------------*\
  =========                 |
  \\      /  F ield         | OpenFOAM: The Open Source CFD Toolbox
   \\    /   O peration     | Website:  https://openfoam.org
    \\  /    A nd           | Version:  11
     \\/     M anipulation  |
\*---------------------------------------------------------------------------*/
FoamFile
{
    format      ascii;
    class       volScalarField;
    location    "10";
    object      nut;
}
// * * * * * * * * * * * * * * * * * * * * * * * * * * * * * * * * * * * * * //

dimensions      [0 2 -1 0 0 0 0];

internalField   nonuniform List<scalar> 
17196
(
0.10305
0.0221384
0.0506633
0.153351
0.157113
0.172542
0.2165
0.285613
0.273855
0.231762
0.205757
0.182733
0.171221
0.163965
0.157222
0.15433
0.144853
0.16858
0.163668
0.219642
0.242753
0.242998
0.222091
0.22266
0.219982
0.147914
0.0407701
0.134744
0.334859
0.334321
0.271954
0.272266
0.297585
0.31693
0.339499
0.383491
0.43172
0.460045
0.452838
0.433345
0.436631
0.42504
0.428113
0.396462
0.378382
0.401113
0.435178
0.445225
0.435206
0.396939
0.12844
0.044851
0.202908
0.346954
0.240423
0.182612
0.174754
0.190758
0.184008
0.241563
0.332658
0.397777
0.441776
0.526502
0.545128
0.489098
0.462368
0.48308
0.446171
0.384136
0.379671
0.407538
0.429609
0.414722
0.435046
0.133328
0.0497391
0.235465
0.322658
0.204709
0.157136
0.142957
0.202178
0.265845
0.30875
0.362274
0.331676
0.37609
0.427293
0.420658
0.389695
0.388473
0.383735
0.287035
0.202753
0.201997
0.237033
0.255786
0.242021
0.262814
0.13083
0.0558183
0.24332
0.274425
0.177284
0.156548
0.17126
0.229281
0.305268
0.349875
0.383566
0.323677
0.266691
0.32805
0.308695
0.273291
0.311756
0.282925
0.199776
0.175263
0.179356
0.184896
0.202468
0.168966
0.137294
0.133352
0.0642265
0.235463
0.24344
0.179146
0.171824
0.202765
0.241908
0.334428
0.363498
0.391561
0.344473
0.230028
0.216092
0.205393
0.19754
0.244075
0.20348
0.17361
0.165174
0.192698
0.230409
0.221426
0.203205
0.20382
0.130458
0.0785168
0.223171
0.216134
0.183718
0.187928
0.218118
0.266985
0.315631
0.322325
0.310059
0.310056
0.219209
0.164268
0.149767
0.158109
0.180522
0.180722
0.162205
0.162079
0.167897
0.179711
0.20394
0.220605
0.260757
0.132772
0.0771083
0.206745
0.206155
0.188535
0.203154
0.236998
0.29319
0.325741
0.274613
0.255132
0.263711
0.190264
0.126385
0.118514
0.131447
0.114861
0.170565
0.169656
0.159376
0.15793
0.176044
0.199905
0.219398
0.253687
0.145921
0.0613059
0.196514
0.204865
0.188844
0.221739
0.256693
0.300751
0.31822
0.237536
0.207719
0.210881
0.150103
0.10348
0.119753
0.109552
0.127959
0.210642
0.184273
0.154776
0.15489
0.170485
0.194304
0.212309
0.265384
0.16397
0.0604027
0.174642
0.205158
0.192163
0.234274
0.280111
0.315719
0.302222
0.21806
0.165599
0.151164
0.111373
0.0965628
0.110866
0.0919836
0.155801
0.224942
0.190747
0.150085
0.148323
0.163336
0.184304
0.205093
0.27085
0.155747
0.0706458
0.163375
0.206981
0.19511
0.241032
0.293818
0.332584
0.273189
0.190962
0.152065
0.127346
0.100545
0.102448
0.09545
0.109024
0.183202
0.252721
0.18108
0.137062
0.138479
0.156122
0.175065
0.186842
0.225207
0.164987
0.0700338
0.152171
0.208718
0.196315
0.249675
0.31445
0.344405
0.260735
0.191388
0.13783
0.116485
0.0943421
0.102975
0.0988558
0.158117
0.240237
0.255615
0.180057
0.131978
0.127707
0.149732
0.163533
0.171547
0.246975
0.184149
0.0722243
0.14536
0.207479
0.212752
0.260076
0.340162
0.357869
0.256524
0.195772
0.135801
0.104122
0.091227
0.103983
0.125716
0.197588
0.260938
0.252464
0.182165
0.129238
0.119648
0.140945
0.155654
0.163239
0.204837
0.161134
0.0894813
0.144404
0.215544
0.234397
0.295184
0.372042
0.361506
0.254194
0.198691
0.128459
0.101646
0.0948789
0.101545
0.141442
0.19907
0.282795
0.24333
0.188856
0.133362
0.115413
0.128535
0.14901
0.153566
0.178207
0.169025
0.0698839
0.10449
0.186416
0.246409
0.326536
0.411713
0.363002
0.245412
0.187714
0.132141
0.101631
0.0987199
0.107117
0.154273
0.197173
0.253538
0.221195
0.188363
0.137128
0.110465
0.117728
0.140954
0.16446
0.14896
0.187229
0.0670769
0.0861602
0.152373
0.223085
0.33372
0.412445
0.357728
0.237311
0.170058
0.133477
0.10262
0.0994828
0.106474
0.173967
0.210129
0.230167
0.202983
0.178824
0.147225
0.108894
0.108467
0.130248
0.157525
0.128861
0.182367
0.08153
0.0908234
0.146092
0.201002
0.306886
0.387455
0.336234
0.230018
0.161636
0.134136
0.10463
0.103087
0.124922
0.189169
0.205336
0.199288
0.178617
0.156458
0.138343
0.112798
0.103035
0.117759
0.148537
0.207898
0.152642
0.111022
0.08727
0.140492
0.177902
0.255528
0.333565
0.292812
0.210557
0.148732
0.128693
0.104571
0.108668
0.138485
0.175881
0.196993
0.178035
0.157767
0.136825
0.129346
0.118212
0.0986977
0.10727
0.133034
0.196543
0.135432
0.141487
0.100445
0.133552
0.160301
0.206649
0.267564
0.24403
0.19017
0.137323
0.126073
0.0970004
0.107467
0.153618
0.17919
0.204527
0.163585
0.142793
0.125929
0.121732
0.113973
0.095689
0.0957074
0.123557
0.133623
0.122469
0.178842
0.158258
0.128311
0.152562
0.179953
0.217946
0.200728
0.168276
0.131823
0.124826
0.134806
0.132859
0.149893
0.219799
0.21843
0.173972
0.130461
0.117726
0.109839
0.108579
0.0938679
0.0914913
0.105029
0.122701
0.118827
0.197549
0.226589
0.159843
0.157013
0.174087
0.186455
0.178221
0.163661
0.135772
0.130325
0.322604
0.486398
0.301295
0.306848
0.260156
0.177983
0.133126
0.105775
0.104399
0.110586
0.0927131
0.084795
0.101135
0.109685
0.11982
0.181125
0.239106
0.189204
0.158224
0.168077
0.177949
0.17005
0.141672
0.125068
0.114937
0.837722
1.52425
0.783297
0.453672
0.339317
0.234039
0.134196
0.0998315
0.100871
0.102982
0.0955013
0.0860501
0.108498
0.107182
0.125049
0.204777
0.254067
0.169372
0.151985
0.14987
0.15955
0.160983
0.240955
0.662595
0.946693
1.95567
1.68583
1.08768
0.580676
0.361079
0.217543
0.141022
0.109113
0.0991325
0.099246
0.0872414
0.0896608
0.121714
0.111576
0.120449
0.160268
0.225872
0.142718
0.118024
0.133399
0.169984
0.326425
0.636472
1.17309
1.15726
1.64946
0.994934
0.730733
0.411959
0.257048
0.157042
0.112729
0.103014
0.0990292
0.10246
0.0969506
0.0884257
0.108618
0.110357
0.0705484
0.176437
0.202795
0.127784
0.131656
0.151569
0.23094
0.360138
0.609516
0.790303
0.962524
0.843637
0.480451
0.30385
0.171506
0.129055
0.0957163
0.0834748
0.0803821
0.0694052
0.0770074
0.07212
0.0774239
0.0786718
0.0716461
0.0846694
0.0355923
0.0457202
0.162678
0.189815
0.182691
0.220199
0.262815
0.259662
0.221105
0.194891
0.176279
0.172709
0.173809
0.193925
0.236671
0.234767
0.297051
0.590241
0.565957
0.480581
0.402205
0.379384
0.350177
0.337177
0.0122168
0.093821
0.213627
0.50279
0.325458
0.286896
0.299035
0.360741
0.419219
0.518724
0.608334
0.717281
0.723337
0.799754
0.841769
0.855601
0.796752
1.05593
1.23244
1.42323
1.57028
1.74101
1.85812
1.829
2.06906
0.0133263
0.096193
0.748444
0.907305
0.689602
0.565084
0.51336
0.585399
0.548332
0.725655
1.26691
1.60763
1.79076
1.94527
1.90542
1.92389
1.92742
1.80196
2.14618
1.86005
1.57178
1.53459
1.35156
1.4789
1.71287
0.0134033
0.0826225
0.836879
0.754295
0.534416
0.436251
0.398264
0.718271
0.963223
1.26532
1.59794
1.65361
1.64358
2.06375
1.88337
1.85251
2.18222
1.97114
1.66834
1.29508
0.975379
0.857472
0.687907
0.913592
1.20193
0.0135448
0.0623213
0.662226
0.753138
0.445176
0.342753
0.508918
0.797821
1.15895
1.35154
1.4678
1.62776
1.53642
1.67656
1.72005
1.8199
1.92319
2.10306
1.43734
0.82274
0.637302
0.582208
0.546695
1.19368
0.734851
0.0137357
0.0547652
0.506321
0.659838
0.39721
0.462931
0.656907
0.746297
1.30754
1.4708
1.35412
1.27188
1.26141
1.36394
1.74668
2.18987
1.85793
2.06544
1.29461
0.79489
0.599295
0.537944
0.591057
1.16016
0.647082
0.0137815
0.0585575
0.414957
0.677906
0.409811
0.454425
0.592143
0.791633
1.18046
1.31718
1.25217
1.12915
1.21003
1.3101
2.09163
2.26473
1.80383
1.38905
0.836204
0.868886
0.666201
0.56886
0.669082
1.17124
0.560627
0.0137415
0.0629796
0.387117
0.665737
0.441741
0.468256
0.727206
0.861532
1.04441
1.00843
1.03079
1.1517
1.1467
1.36026
1.87688
1.76835
1.90772
0.915316
0.50655
0.589469
0.815146
0.641681
0.702087
0.946614
0.845326
0.0136428
0.058932
0.332298
0.716462
0.491787
0.541781
0.669256
0.82581
0.98806
0.953299
0.904121
1.05386
1.11861
1.39838
2.24589
1.68724
1.6806
0.638689
0.328349
0.384682
0.618024
0.794265
0.638485
0.822887
0.668999
0.0137189
0.0591944
0.294303
0.76816
0.523082
0.546355
0.671373
0.816557
0.893416
0.895012
0.874342
0.923822
1.21339
1.50325
1.9201
1.56229
1.25688
0.495394
0.277848
0.271097
0.468651
0.85228
0.616516
0.688856
0.395063
0.0130779
0.061946
0.356023
0.740512
0.569473
0.522418
0.662688
0.922271
0.902396
0.88767
0.847635
0.9282
1.26771
1.57288
1.85091
1.09665
0.781541
0.402026
0.275981
0.219962
0.325983
0.671068
0.787693
0.553897
0.161157
0.012962
0.0606541
0.406642
0.681134
0.64158
0.635509
0.834801
1.00711
0.920798
0.935858
0.818049
0.922541
1.40905
1.61471
1.60393
1.17772
0.748736
0.435181
0.293176
0.189271
0.202814
0.397662
0.518879
0.256169
0.052253
0.0132479
0.0504207
0.361427
0.675466
0.663384
0.764218
0.921339
1.08344
0.988858
0.98536
0.815003
0.929663
1.54693
1.61308
1.72894
1.00002
0.706287
0.439851
0.281765
0.19133
0.146366
0.193116
0.277908
0.132361
0.0424565
0.0127829
0.0339074
0.248831
0.729549
0.707734
1.006
1.07948
1.16521
1.18597
0.972385
0.851191
0.894586
1.99422
2.03349
2.02844
1.34451
0.778898
0.480722
0.303002
0.201261
0.113883
0.122877
0.187261
0.112234
0.059916
0.012443
0.0292604
0.219714
0.771707
0.685295
1.1168
1.24747
1.29846
1.22688
1.04768
0.889572
0.905876
1.87046
2.65246
1.93449
1.53324
0.689439
0.484171
0.307805
0.206282
0.118031
0.0870989
0.136394
0.100459
0.0711408
0.0111875
0.0287033
0.227747
0.778245
0.782399
1.10512
1.33981
1.29545
1.19993
1.02143
0.940407
0.945924
1.69902
2.69204
2.4251
1.44132
0.951364
0.495715
0.321291
0.268898
0.127984
0.0862833
0.101497
0.069936
0.0394159
0.00959862
0.0477155
0.276963
0.811587
0.72728
1.16964
1.46098
1.32242
1.14381
1.06359
0.943076
0.9709
1.49947
2.1543
1.85311
1.43185
0.775818
0.45653
0.295122
0.2592
0.165803
0.0970931
0.0852519
0.0605755
0.0234429
0.00863864
0.0816575
0.658342
0.921586
0.680032
1.06344
1.55486
1.21834
1.17371
1.00887
0.939456
0.81767
1.21358
1.5633
1.37061
1.52782
0.777291
0.437558
0.283237
0.236974
0.203925
0.121738
0.0946997
0.0752856
0.0766064
0.00848526
0.214894
0.67114
0.817807
0.800016
1.01356
1.43981
1.16512
1.14508
0.965385
0.938781
0.634902
0.930185
1.13369
1.31368
1.95687
0.830847
0.480715
0.312578
0.248368
0.232322
0.166219
0.109623
0.0800604
0.0825207
0.00931169
0.574688
1.12569
0.938095
0.858823
0.923625
1.08782
1.06466
1.06001
1.00998
0.931927
0.617255
0.949025
1.03932
1.48516
1.89755
0.971618
0.496846
0.281739
0.230586
0.218384
0.176945
0.151193
0.121563
0.123063
0.0109552
1.01156
1.39868
1.33877
0.939983
0.748538
0.949812
0.924143
1.11416
0.98557
0.831419
0.970663
1.13727
1.31923
1.56465
1.56862
1.00049
0.549868
0.326436
0.278447
0.254338
0.205483
0.168739
0.156419
0.153961
0.0126787
1.36011
1.79654
1.11438
0.920468
0.732176
1.005
1.02101
0.904136
0.929722
0.96843
1.79795
1.71242
1.84063
1.92552
1.688
1.03604
0.640865
0.356279
0.274478
0.24553
0.23009
0.188995
0.184983
0.181326
0.0131539
1.04423
1.91732
1.28693
0.760524
0.755562
0.782832
0.956846
0.886322
0.954314
1.54113
2.44164
3.05483
3.00786
2.24013
1.52717
1.00612
0.595817
0.419619
0.272921
0.217063
0.179149
0.183475
0.182047
0.214986
0.0138012
0.487906
0.7222
0.948209
0.612163
0.438966
0.581212
0.840098
1.00116
1.25358
1.88683
2.87982
2.67924
1.97239
1.39829
0.897499
0.614435
0.520403
0.454812
0.381443
0.266642
0.237972
0.207274
0.306617
0.386049
0.0701031
0.192172
0.146526
0.138546
0.165964
0.185049
0.270572
0.436782
0.64843
0.852126
0.807771
0.789582
0.477001
0.335977
0.226954
0.157217
0.122144
0.104869
0.0944564
0.0767544
0.0802186
0.0781547
0.0762124
0.065227
0.0682932
0.0809185
0.0363666
0.0602016
0.0830909
0.108866
0.0968134
0.104948
0.109466
0.118463
0.135042
0.154443
0.16538
0.166275
0.198468
0.247998
0.320925
0.460725
1.13505
0.879995
0.627851
0.487629
0.430141
0.399148
0.37216
0.372932
0.00840355
0.0389737
0.237723
0.311287
0.261884
0.295904
0.296218
0.292031
0.326428
0.318913
0.339523
0.310351
0.603466
1.11825
1.18701
1.13556
1.3792
1.36961
1.33794
1.27405
1.25509
1.34255
1.39669
1.52086
1.79755
0.00867372
0.0396676
0.531045
0.72051
0.466928
0.271781
0.196589
0.370308
0.436928
0.711987
1.58202
1.99139
2.29298
2.49186
2.4577
2.1001
2.00322
2.22092
1.71266
1.58325
1.46006
1.51753
1.50436
1.55528
1.83551
0.00871285
0.0218092
0.437654
0.627169
0.441467
0.189701
0.262668
0.648803
0.975419
1.40959
2.07222
2.28355
2.27097
2.35187
2.48185
2.78462
2.64423
1.63709
1.13091
1.08405
1.38425
1.85544
1.83485
1.85616
1.33358
0.0086951
0.0169352
0.272466
0.53191
0.380353
0.210347
0.473574
0.778073
1.31364
1.56756
1.73432
2.21615
1.89847
2.00682
2.20294
2.39148
2.47968
1.05019
0.773327
0.81951
1.31299
1.89095
2.07731
0.762647
0.0997524
0.00916145
0.0155826
0.174582
0.403514
0.359572
0.40884
0.584891
0.673295
1.31807
1.52914
1.70593
1.81729
1.74147
1.83832
2.43946
2.62138
2.01207
0.710612
0.545765
0.696183
1.10715
1.81318
1.75897
0.677855
0.0300268
0.00915425
0.0161322
0.0928529
0.37327
0.347691
0.398555
0.741232
0.89767
1.33835
1.20936
1.27706
1.61105
1.6791
1.8511
1.98824
1.81607
1.37345
0.534696
0.397646
0.549576
0.812397
1.87705
1.47715
0.650018
0.0587627
0.00915232
0.0176364
0.0682756
0.34881
0.355064
0.411091
0.794047
1.00531
1.13197
1.05606
1.1173
1.42207
1.54464
1.8052
2.36685
1.79109
1.28508
0.545436
0.303619
0.405082
0.739133
1.46666
1.2994
0.589116
0.0396669
0.00912364
0.0170573
0.0722101
0.358362
0.360546
0.482109
0.765076
1.01347
1.18616
1.07681
1.06204
1.24177
1.55061
1.78761
1.86007
1.18236
1.09477
0.567691
0.272587
0.326358
0.727126
1.21343
0.88687
0.308407
0.030318
0.00874834
0.0190626
0.121535
0.378381
0.382021
0.590509
0.779355
1.08171
1.06805
1.11027
1.03185
1.10977
1.78557
1.80988
1.63506
1.24175
0.750026
0.53759
0.241539
0.250287
0.593362
0.810946
0.565591
0.177966
0.0238077
0.00885338
0.0189616
0.18759
0.423734
0.410789
0.519766
0.863065
1.12525
0.995719
1.20778
1.06495
1.02063
1.5967
2.07483
1.73109
1.03109
0.696143
0.545338
0.249466
0.159908
0.311403
0.389341
0.336295
0.0644231
0.0137497
0.00870128
0.0158295
0.22917
0.488625
0.481985
0.533031
0.761975
1.03684
0.934116
1.21591
1.0469
1.04869
1.64059
1.97068
1.56515
0.85458
0.528783
0.515318
0.224867
0.115697
0.115595
0.14523
0.152947
0.0317033
0.0111185
0.00881634
0.015969
0.237165
0.555982
0.586446
0.678129
0.861524
1.07374
1.01231
1.21501
1.11673
1.04807
1.64623
1.86732
1.5424
0.881406
0.568355
0.452718
0.28696
0.118412
0.0465717
0.0510316
0.0440958
0.0257408
0.0136351
0.00878228
0.0139307
0.19384
0.592168
0.671743
0.839188
1.05285
1.31627
1.32266
1.21205
1.08751
1.01701
1.48989
2.07789
1.6158
0.95543
0.604546
0.475576
0.3334
0.137624
0.0404972
0.0314636
0.0294962
0.0237032
0.0179975
0.00869286
0.0154155
0.178524
0.606352
0.735395
0.75205
1.07114
1.23006
1.42094
1.22408
1.09957
1.00556
1.37518
2.06569
1.74678
1.13385
0.702577
0.435456
0.4401
0.197127
0.0472533
0.0230951
0.0164704
0.0115415
0.0129882
0.00856861
0.0217304
0.100955
0.751466
1.00251
1.01267
1.27232
1.36594
1.22263
1.22645
1.16931
1.07248
1.64276
2.04094
1.92019
1.15045
0.677549
0.42928
0.354789
0.296357
0.0856709
0.0269074
0.0139497
0.00716165
0.00573493
0.00848652
0.035068
0.273316
0.765537
0.992759
1.07483
1.60188
1.19278
1.05805
1.23483
1.21416
1.10278
1.58202
1.98266
1.74016
1.16097
0.675292
0.368418
0.262433
0.292098
0.183876
0.0453895
0.0163168
0.00868118
0.00755222
0.00844459
0.0516485
0.414658
1.08113
0.953676
1.04839
1.63722
1.13889
1.18227
1.23755
1.32861
1.13885
1.43178
1.84909
1.71992
1.11941
0.574083
0.335307
0.233579
0.24143
0.22773
0.11887
0.043627
0.0234503
0.0101104
0.00862894
0.0890931
0.754138
1.5829
1.30805
0.932467
1.34628
1.22732
1.22012
1.18609
1.30145
1.22023
1.3818
1.84678
1.55443
1.03684
0.588361
0.320628
0.236877
0.235117
0.225372
0.184302
0.0975291
0.0544009
0.0233573
0.00890162
0.174111
1.44034
2.09524
1.20204
1.32026
1.16093
0.994916
1.07343
0.991569
1.36489
1.33767
1.45924
1.71349
1.51444
0.925928
0.602902
0.351253
0.237937
0.192406
0.184915
0.185672
0.167027
0.110792
0.143415
0.00949259
0.312654
1.87321
2.35541
2.26123
1.54211
1.0938
0.864119
0.883732
0.996087
1.27574
1.42556
1.49753
1.67442
1.58616
1.08188
0.702183
0.448906
0.27045
0.192788
0.187595
0.168244
0.163457
0.141564
0.162265
0.0100411
0.456295
2.58615
2.89283
2.23865
1.62247
1.09627
0.822038
0.869805
1.05934
1.61548
1.80576
1.82687
1.7923
1.40237
0.977425
0.622502
0.372858
0.25082
0.184543
0.150245
0.13819
0.134148
0.150602
0.156954
0.0106472
0.643942
2.0451
2.15876
1.96914
1.38017
1.20125
1.20292
1.28385
2.00689
2.11978
2.23784
2.16206
1.6357
1.13367
0.777058
0.524454
0.34873
0.25015
0.175734
0.149285
0.14673
0.137911
0.152116
0.158724
0.0162838
0.952681
0.852112
1.1258
1.48196
1.15766
1.24686
1.39989
1.63318
2.06777
2.38203
2.53253
2.07766
1.62071
1.04532
0.690042
0.476322
0.337301
0.256582
0.217231
0.169742
0.143602
0.131176
0.167461
0.227515
0.0686372
0.21108
0.217944
0.198509
0.209326
0.298564
0.425427
0.550743
0.665234
0.749382
0.735087
0.729814
0.555939
0.393967
0.237996
0.147021
0.10215
0.0847637
0.0722959
0.0732331
0.0723249
0.0665608
0.0571315
0.0524912
0.0596964
0.0968423
0.0402984
0.0410099
0.0668154
0.0912422
0.0842581
0.0906259
0.0962579
0.105168
0.113193
0.115381
0.118173
0.142427
0.186018
0.277624
0.573845
1.02382
0.928927
0.604061
0.490295
0.42022
0.37819
0.344075
0.31867
0.356193
0.00834898
0.0166679
0.249096
0.256347
0.400857
0.266887
0.269212
0.29138
0.427528
0.702994
0.821951
0.827893
1.58641
1.67502
1.23337
1.08891
1.23079
1.01242
1.01355
1.15924
1.19535
1.24821
1.28686
1.49062
1.59824
0.00845352
0.0166684
0.287719
0.454103
0.288936
0.162651
0.151275
0.353828
0.492626
0.84937
1.60965
2.30851
2.89206
2.59463
1.97785
2.45481
1.96451
1.02346
0.893459
1.09285
1.36855
1.71686
1.71953
1.852
1.77019
0.00909979
0.0117073
0.19906
0.411785
0.262052
0.140258
0.272118
0.536253
0.910944
1.55288
2.44166
2.49643
2.57311
2.09313
2.04089
2.53409
1.29677
0.641675
0.666171
0.886683
1.21637
2.29721
2.63489
2.38531
0.486872
0.00923339
0.00954112
0.0737496
0.294534
0.234971
0.197015
0.464137
0.666274
1.22639
1.55242
1.91524
2.10418
1.91148
1.88416
2.10187
2.33353
0.897959
0.519814
0.526752
0.717808
1.15638
2.52637
2.3867
0.648649
0.0166611
0.00934234
0.00908631
0.0563803
0.225351
0.276695
0.299696
0.47037
0.595268
1.08116
1.43109
1.5286
2.02326
1.89121
1.78777
1.96548
1.85891
0.724439
0.459804
0.433188
0.649434
1.26474
2.97499
1.23857
0.137511
0.00874317
0.00928028
0.00980784
0.0364237
0.200365
0.308032
0.47711
0.802016
0.845781
1.10411
1.13418
1.33243
1.75933
1.57909
1.94348
1.76312
1.18052
0.766691
0.467105
0.386872
0.635812
1.23156
2.03378
0.8277
0.136917
0.0102719
0.00929313
0.0103755
0.0595412
0.199562
0.295366
0.455031
0.847838
0.972218
1.08247
1.02031
1.22713
1.46978
1.48053
1.66242
1.50254
1.14615
0.726536
0.41723
0.380549
0.583099
1.22192
1.38018
0.536147
0.12065
0.0110624
0.00924535
0.0107561
0.0770605
0.250237
0.314404
0.615706
0.838986
0.92833
1.06553
1.20247
1.14267
1.26089
1.49599
1.48231
1.27727
0.911705
0.677619
0.446145
0.381802
0.543511
0.997631
0.968198
0.267653
0.0447725
0.00692067
0.00919447
0.0104174
0.107667
0.266889
0.337651
0.625835
0.966779
0.850826
0.996138
1.06818
1.10227
1.11097
1.47354
1.52854
1.30418
1.00183
0.699781
0.42733
0.324686
0.412507
0.576751
0.53652
0.139773
0.0218354
0.00621295
0.00919387
0.00905813
0.153626
0.324872
0.368018
0.586288
0.978851
1.04253
0.903251
1.22543
1.1433
1.06441
1.63208
1.41042
1.31856
0.860388
0.620554
0.422718
0.279508
0.240434
0.299504
0.2139
0.0485337
0.0150276
0.00623069
0.00903589
0.0103847
0.179687
0.419669
0.437478
0.616366
0.985321
1.16192
0.909705
1.34815
1.08671
1.00662
1.71157
1.58966
1.35664
0.899504
0.627012
0.48252
0.247987
0.149279
0.121279
0.114949
0.0157861
0.0102271
0.00865607
0.00853897
0.0133454
0.250341
0.500648
0.53067
0.631214
1.00847
1.19145
1.10048
1.2916
1.0672
1.07643
1.53476
1.63209
1.69912
1.15184
0.802745
0.704263
0.310694
0.10527
0.0640953
0.0315646
0.0133161
0.0115255
0.0123721
0.00863759
0.0181536
0.332416
0.65707
0.785686
0.901208
1.16927
1.25043
1.42618
1.21716
1.06919
1.05811
1.4917
1.55736
1.67185
1.05703
0.761639
0.726624
0.390111
0.116512
0.0227577
0.013752
0.0115639
0.0116388
0.0140575
0.00871799
0.0195004
0.351719
0.796804
0.919686
1.18004
1.56615
1.63815
1.57567
1.26602
1.10954
1.08267
1.60913
1.51641
1.29176
0.879975
0.693478
0.622539
0.583602
0.204542
0.0325074
0.0143388
0.00887579
0.00858924
0.0103749
0.00864475
0.0870613
0.674368
1.28566
1.67613
1.62708
2.28021
2.09195
1.37652
1.15164
1.19478
1.11913
1.49678
1.32149
1.12661
0.705073
0.542911
0.50658
0.573382
0.41578
0.0851981
0.0208673
0.0114508
0.00834422
0.008072
0.00880196
0.00332532
1.10892
2.53704
2.13774
2.01231
2.1245
2.38169
1.63912
1.10142
1.26818
1.21792
1.33705
1.37145
1.12563
0.617338
0.445865
0.372176
0.481819
0.49038
0.216907
0.0475594
0.0183069
0.010119
0.00965009
0.00921779
0.193517
1.64412
3.12473
2.56711
2.91792
2.42698
2.25048
1.75609
1.18675
1.13
1.35022
1.37029
1.27245
0.96267
0.579223
0.382949
0.317367
0.337857
0.374935
0.351015
0.154654
0.0380171
0.0211243
0.0139612
0.0106464
0.387274
2.46914
3.43483
3.53001
3.30997
2.41284
1.9509
1.56642
1.31566
1.01612
1.36132
1.37505
1.24513
0.865923
0.578273
0.371088
0.273905
0.249671
0.269229
0.276174
0.215113
0.11851
0.0503649
0.0228396
0.0117535
0.273317
2.74553
4.14324
3.98413
3.37527
2.43399
1.68546
1.2537
1.30702
1.14368
1.30362
1.43554
1.23506
0.951747
0.571625
0.348245
0.266322
0.214545
0.203904
0.230773
0.216908
0.192593
0.149964
0.130448
0.0141167
0.221405
2.90989
4.15905
3.55331
2.77572
2.04539
1.44412
0.969542
1.0855
1.04696
1.3146
1.32393
1.25462
0.996121
0.668871
0.464336
0.300389
0.223549
0.194985
0.194794
0.197436
0.200728
0.153508
0.162464
0.0126577
0.571971
3.95266
4.55908
3.02674
2.11749
1.3675
1.23916
1.09877
1.28525
1.29336
1.64503
1.47078
1.12734
0.901665
0.609175
0.413119
0.29258
0.209157
0.165577
0.138188
0.141905
0.131133
0.14953
0.155618
0.012185
0.448047
2.59621
2.14114
2.32281
1.87654
1.84543
2.00615
1.86401
2.47904
2.2169
1.99216
1.6854
1.1359
0.713197
0.488581
0.368863
0.263619
0.20347
0.181436
0.147389
0.13919
0.138872
0.139244
0.159023
0.0168104
1.12638
1.19611
0.953805
1.36344
1.98078
2.06159
2.3471
2.59578
2.82396
2.64951
2.326
1.7604
1.21352
0.747913
0.487838
0.347622
0.265003
0.195549
0.183619
0.16619
0.140617
0.14008
0.15536
0.22459
0.0747511
0.270949
0.365462
0.262955
0.259549
0.316766
0.407071
0.508574
0.636548
0.716706
0.757292
0.704994
0.474493
0.30711
0.181882
0.111886
0.0803336
0.0683517
0.0608621
0.0575458
0.0574325
0.0577
0.0587505
0.0579887
0.0622667
0.13529
0.0521218
0.0431431
0.0810287
0.0818284
0.0802519
0.0848766
0.0907984
0.103828
0.112043
0.120616
0.141742
0.189222
0.267381
0.42892
0.97254
1.05072
0.56724
0.428014
0.371676
0.335719
0.314603
0.30195
0.290521
0.326712
0.0103393
0.0125295
0.182743
0.361296
0.193031
0.113322
0.123924
0.159733
0.287839
0.577916
0.58634
0.904182
1.60339
1.72617
1.74136
1.33005
0.921432
0.792255
1.06789
1.21422
1.24641
1.32718
1.37713
1.5411
1.45593
0.00926528
0.0105905
0.157825
0.318497
0.181398
0.107057
0.131297
0.255802
0.54429
1.57139
1.84837
2.93071
2.90166
2.04856
2.0177
1.38774
0.8839
0.609975
0.647064
0.871477
1.10355
1.53731
1.9189
1.94287
1.79561
0.00940464
0.00870585
0.0793834
0.211652
0.161934
0.103423
0.192684
0.314781
0.988071
1.87238
1.97624
2.53184
1.99817
1.0991
1.39837
1.09407
0.608257
0.497755
0.542133
0.771677
1.10292
1.9721
2.25044
2.69619
0.207769
0.00944684
0.00836192
0.030082
0.148942
0.164315
0.17818
0.337872
0.522969
1.22242
1.46051
1.79603
2.22612
1.9528
1.01152
1.16597
0.863223
0.540195
0.481648
0.51159
0.752554
1.3377
2.30663
1.61033
0.626097
0.0206728
0.00953355
0.008406
0.0271139
0.0874096
0.268251
0.274949
0.418163
0.566411
1.12776
1.25226
1.41457
2.21142
1.70315
0.962181
1.20601
0.783059
0.49155
0.486525
0.530832
0.812474
1.79017
1.95932
0.433104
0.0364774
0.00940579
0.00953119
0.0083888
0.0387728
0.108237
0.249014
0.40884
0.774108
0.826556
1.01146
1.03971
1.28594
1.75722
1.32028
0.940062
0.851408
0.593228
0.472178
0.497741
0.527141
0.960301
1.55359
1.13877
0.169839
0.0246888
0.00792226
0.00950192
0.0084954
0.0606755
0.137014
0.274159
0.445503
0.751148
0.97988
0.966995
0.972151
1.24251
1.44745
1.11785
0.89234
0.851773
0.62711
0.476146
0.474135
0.553899
1.00338
1.29299
0.727376
0.112638
0.0272448
0.00793801
0.00936446
0.00847941
0.064339
0.193738
0.264403
0.406014
0.578198
0.787851
0.87901
0.987269
1.27868
1.15996
1.07063
0.985218
0.915289
0.641745
0.489196
0.460077
0.562101
0.781202
0.793464
0.397609
0.0582474
0.0155112
0.00746897
0.0094371
0.00803354
0.0808064
0.192124
0.297052
0.47959
0.655862
0.76436
0.956617
1.09003
1.27419
0.984272
1.08745
1.05423
0.9152
0.763668
0.594364
0.423296
0.428201
0.528373
0.452851
0.208455
0.0295617
0.0121921
0.01093
0.00934857
0.00886514
0.11474
0.221313
0.278591
0.535364
0.744618
0.92265
1.13522
1.20321
1.16395
0.967357
1.11446
1.1466
1.17917
0.898543
0.805394
0.466634
0.362418
0.339262
0.283371
0.113246
0.0138835
0.0118773
0.0139105
0.00891833
0.0122252
0.175751
0.335229
0.349843
0.539207
0.832874
1.08431
1.23799
1.28065
1.07027
0.99858
1.14378
1.21173
1.22051
1.00942
1.4241
0.650053
0.366078
0.255825
0.208242
0.070861
0.011739
0.0214172
0.0150722
0.00853574
0.0223093
0.27269
0.488454
0.485658
0.62223
0.92265
1.04117
1.25071
1.24667
1.02858
0.997425
1.17553
1.36887
1.48255
1.27342
1.30381
1.13724
0.419599
0.174255
0.0753585
0.0373991
0.00913046
0.0125839
0.0140624
0.0085792
0.0786134
0.460149
0.760071
0.817088
0.870193
1.05691
1.23612
1.29817
1.13379
0.98018
1.05341
1.33608
1.66455
1.91272
1.37392
1.18047
1.4642
0.56842
0.236537
0.0493468
0.0209802
0.00997189
0.00834307
0.00996624
0.00796782
0.313456
0.924301
1.16987
1.1231
1.21933
1.38866
1.42419
1.46854
1.17003
0.989538
1.1022
1.41993
1.36746
1.34985
1.1002
0.923817
1.0291
0.760249
0.444568
0.0809615
0.0261562
0.0118379
0.00809023
0.00758242
0.00445889
0.69415
2.01642
2.22468
1.89879
1.61227
2.18556
2.11856
1.66968
1.12848
0.965693
1.1048
1.39806
1.0364
0.741642
0.70931
0.685184
0.770371
0.941248
0.681825
0.212638
0.0451972
0.0166585
0.0111902
0.00949341
0.000601236
1.33634
3.17417
3.87313
3.86877
3.37606
2.75068
3.16616
2.3819
1.0199
0.887685
1.00495
1.21281
0.839168
0.657906
0.617301
0.600401
0.748821
0.999392
0.894009
0.460866
0.115358
0.0288379
0.0168003
0.0131817
0.0981027
2.33249
4.14624
5.06608
4.84056
4.74404
4.01898
3.37424
3.4847
1.35254
1.05989
1.04731
1.10257
0.688567
0.482686
0.478464
0.45548
0.574541
0.731856
0.675523
0.545572
0.308556
0.0766352
0.0293082
0.014075
0.163587
3.81031
5.08012
5.34183
5.50703
4.46875
3.38625
2.51207
2.95583
1.86948
1.26833
1.14242
1.04971
0.698382
0.426971
0.367015
0.325404
0.32961
0.343179
0.432352
0.442153
0.353484
0.214163
0.106739
0.0911376
0.0115009
4.40215
5.05356
5.10527
4.02505
3.4564
2.63725
1.92204
1.98109
1.69324
1.43577
1.38516
1.20622
0.769902
0.448598
0.311001
0.254324
0.234333
0.240448
0.29194
0.299593
0.275401
0.192964
0.116824
0.125326
0.0895766
4.5993
4.89478
4.26936
3.34592
2.96232
2.3618
1.70331
1.59047
1.60641
1.34209
1.3052
1.13512
1.00015
0.605674
0.376034
0.280132
0.270265
0.225092
0.230981
0.227132
0.240033
0.193996
0.156148
0.126191
0.0789562
5.02358
4.42632
3.57317
2.88117
2.64238
2.31811
1.69107
1.78629
1.70753
1.55248
1.44337
1.06595
0.903699
0.63891
0.417648
0.291705
0.258186
0.225137
0.201598
0.169546
0.155926
0.155303
0.153194
0.141846
0.00956483
3.18929
3.14772
2.82375
2.35431
2.544
2.43847
2.83882
2.51824
2.42202
2.27067
1.74794
1.22936
0.901646
0.606546
0.44723
0.319964
0.237832
0.218833
0.202421
0.151754
0.138952
0.142179
0.142534
0.155431
0.00730495
1.12921
2.01585
1.30712
1.05655
1.82081
2.79969
2.74543
3.17555
3.13507
2.72335
2.11961
1.38731
0.987651
0.578495
0.419336
0.328934
0.263419
0.242442
0.21201
0.201892
0.161428
0.144024
0.152074
0.253378
0.0666395
0.310286
0.409593
0.360215
0.318572
0.318659
0.38453
0.491695
0.660072
0.769847
0.767062
0.651194
0.411865
0.269867
0.17427
0.108669
0.0787165
0.0670462
0.0622896
0.0552791
0.0559817
0.0563394
0.0568298
0.0567392
0.067179
0.131305
0.0618271
0.0449399
0.0832216
0.0776248
0.0704966
0.0721261
0.0860437
0.101815
0.111228
0.132236
0.178215
0.299598
0.513403
0.702326
1.48899
1.08847
0.488761
0.362796
0.325798
0.330958
0.302246
0.284629
0.274517
0.311643
0.0124386
0.00991004
0.145621
0.176679
0.083276
0.0892741
0.103836
0.139435
0.288883
0.493213
0.674591
1.04245
1.90363
2.00391
2.7937
1.17347
0.947867
0.990876
1.14829
1.23436
1.32064
1.39494
1.48571
1.7212
1.5717
0.00952552
0.0091964
0.107854
0.17856
0.100223
0.0813078
0.115357
0.218571
0.537918
1.95172
1.88194
2.54098
2.61796
1.99397
1.9167
0.886858
0.653952
0.521896
0.569204
0.727426
0.922127
1.28634
1.37957
2.37743
2.11921
0.00947987
0.00874407
0.03733
0.123094
0.0995147
0.0850676
0.16556
0.289272
1.04478
2.17153
1.51731
2.05186
2.59722
1.05833
0.756252
0.682966
0.52004
0.534422
0.56453
0.751618
0.977543
1.53191
1.7286
2.64523
0.0932086
0.00946729
0.00860315
0.016256
0.104164
0.135078
0.139072
0.31167
0.437482
0.891979
1.21138
1.17829
2.04255
2.29795
0.929542
0.571491
0.584029
0.501953
0.538341
0.614249
0.803628
1.20905
1.71679
1.54371
1.1511
0.052239
0.00952878
0.00859607
0.0193382
0.0480214
0.238423
0.273498
0.400014
0.475791
0.746004
0.784932
0.986237
2.50037
1.87726
0.813682
0.585105
0.509333
0.490215
0.547224
0.624324
1.14863
1.42473
1.19444
0.323009
0.216219
0.00992533
0.00949081
0.00865212
0.0266973
0.0639568
0.205342
0.468872
0.707479
0.760106
0.679894
0.702949
1.11548
2.12086
1.31788
0.745336
0.594533
0.484136
0.485037
0.545145
0.684664
1.23174
1.08784
0.415238
0.0943256
0.0327525
0.0102714
0.00950197
0.00876275
0.0586188
0.128331
0.173272
0.439096
0.695388
1.00258
0.953632
0.985963
1.57472
1.59506
0.931744
0.730256
0.604879
0.457004
0.469666
0.500426
0.69392
0.954379
0.748331
0.129967
0.0417738
0.0143261
0.00797711
0.00944502
0.00892584
0.0721787
0.195366
0.209169
0.439842
0.580932
0.746665
0.979328
1.25353
1.60589
1.26329
0.984361
0.737179
0.573125
0.483159
0.465574
0.460171