/*--------------------------------*- C++ -*----------------------------------*\
  =========                 |
  \\      /  F ield         | OpenFOAM: The Open Source CFD Toolbox
   \\    /   O peration     | Website:  https://openfoam.org
    \\  /    A nd           | Version:  11
     \\/     M anipulation  |
\*---------------------------------------------------------------------------*/
FoamFile
{
    format      ascii;
    class       volScalarField;
    location    "10";
    object      omega;
}
// * * * * * * * * * * * * * * * * * * * * * * * * * * * * * * * * * * * * * //

dimensions      [0 0 -1 0 0 0 0];

internalField   nonuniform List<scalar> 
17196
(
0.0200826
0.0165103
0.0385404
0.0471656
0.0488075
0.0516677
0.0529549
0.058227
0.0603053
0.0602915
0.0610252
0.0646172
0.0623912
0.0607007
0.0567393
0.0516238
0.0475757
0.0496207
0.0520162
0.0556499
0.0586314
0.058634
0.0599383
0.0613278
0.0603524
0.0103212
0.0113373
0.0214357
0.0249777
0.02751
0.0288982
0.0294741
0.0322055
0.0327734
0.0338303
0.0356811
0.0362259
0.0362575
0.036029
0.0347601
0.032921
0.0295183
0.0288702
0.0295277
0.031986
0.0334942
0.0349726
0.0354682
0.0361805
0.0361045
0.010335
0.0124492
0.020186
0.0233504
0.0235456
0.0245702
0.0258436
0.0284135
0.0286777
0.0328608
0.035634
0.0377288
0.0389457
0.0396642
0.0361007
0.0325283
0.0302859
0.0295523
0.0297883
0.0305985
0.0319088
0.0326431
0.0326262
0.0328751
0.0341837
0.0104217
0.0119492
0.0202679
0.0224062
0.0221565
0.022841
0.0247759
0.0287704
0.0330882
0.0368609
0.0357194
0.0337208
0.0328709
0.0335736
0.0306614
0.0293542
0.0275763
0.0263361
0.0254661
0.0254107
0.0262033
0.0271117
0.0279024
0.0276919
0.0298699
0.0103646
0.0119847
0.0197078
0.0211968
0.0205091
0.0223725
0.0251132
0.0276007
0.0342889
0.0354337
0.0370512
0.0325318
0.0293272
0.0292363
0.026294
0.0246601
0.0238957
0.0220969
0.0206009
0.0203712
0.0204679
0.0214097
0.0208545
0.0190457
0.019445
0.0104396
0.0113627
0.0177005
0.0205283
0.01979
0.0226904
0.0254816
0.0287634
0.0329302
0.0339933
0.0348242
0.0321741
0.0259337
0.0239077
0.0227152
0.0214185
0.0211003
0.0196986
0.0196304
0.0205088
0.0209314
0.020483
0.0202667
0.0190877
0.0169856
0.0104028
0.0113723
0.0179102
0.0200909
0.0202458
0.0227917
0.0256085
0.0285105
0.0297008
0.0290331
0.0292228
0.0292819
0.0239453
0.0208489
0.0196806
0.0188417
0.018241
0.018275
0.0213177
0.0222968
0.0219893
0.0212973
0.0207781
0.0198729
0.017106
0.0104704
0.0108945
0.0164626
0.0194
0.0201285
0.0230378
0.0253549
0.0282604
0.0291952
0.0264005
0.0261047
0.0259672
0.0217319
0.0183217
0.0179411
0.0174826
0.0171188
0.0212553
0.0229053
0.0226746
0.0221649
0.0220463
0.0213599
0.0202725
0.0175979
0.0103738
0.00977797
0.0165079
0.0195969
0.0203344
0.0234513
0.0256365
0.026579
0.0275585
0.023867
0.0217035
0.0220195
0.0188471
0.0170489
0.0170314
0.0169766
0.020432
0.0228052
0.0229794
0.0228759
0.0228817
0.0228543
0.022053
0.0206872
0.0172755
0.0104862
0.0101146
0.016353
0.0192524
0.0205687
0.0233901
0.025605
0.0264426
0.0259414
0.0224876
0.0199079
0.018804
0.0170056
0.0164799
0.0170448
0.018751
0.0235326
0.0231656
0.0226996
0.0228212
0.0230384
0.0230097
0.0224805
0.0212016
0.0167328
0.0105097
0.0108269
0.016199
0.01948
0.0207709
0.023507
0.0255807
0.0264844
0.0241439
0.0210041
0.0194459
0.0182184
0.0168701
0.0164488
0.0165677
0.0211878
0.0236937
0.0228943
0.0218869
0.0222958
0.0227452
0.0228995
0.0228187
0.0211311
0.0168547
0.0105818
0.0112074
0.0152024
0.0193678
0.0212704
0.0238599
0.0258323
0.02659
0.0238062
0.0208283
0.018495
0.0176919
0.0164889
0.0162829
0.0198055
0.0226172
0.023805
0.0224692
0.0212215
0.0215472
0.0222004
0.0227613
0.0224549
0.0208396
0.0169222
0.0106194
0.010362
0.014474
0.0196664
0.0224034
0.0243159
0.0260696
0.026376
0.0236061
0.0199679
0.0183355
0.0168003
0.0161258
0.0187564
0.0205537
0.0228982
0.024126
0.0222097
0.0209382
0.0207491
0.0215504
0.022327
0.0218998
0.0194019
0.0159729
0.0106563
0.010216
0.0143759
0.0197003
0.02299
0.0256111
0.0264198
0.0262217
0.0233693
0.0202244
0.0179712
0.0167306
0.0159718
0.0194595
0.0208807
0.0231516
0.0234952
0.0217583
0.0207677
0.0200814
0.0206556
0.021477
0.0212562
0.0192135
0.0151295
0.0106705
0.010496
0.013769
0.0193093
0.022992
0.0263372
0.0267496
0.0260679
0.0227621
0.0200223
0.0178626
0.0164031
0.0159755
0.0191526
0.0215889
0.0219031
0.0224575
0.0208606
0.0204042
0.0194428
0.0194938
0.0201918
0.0202957
0.0189742
0.0174504
0.0107118
0.0112212
0.0140921
0.0187161
0.0220527
0.0261616
0.0269656
0.0259173
0.0219392
0.0195107
0.0180164
0.016543
0.015933
0.0190695
0.0209763
0.0217639
0.0213219
0.0199328
0.0196406
0.0189611
0.0181808
0.0187989
0.0193187
0.0185378
0.0179579
0.0107364
0.0119462
0.0149899
0.0186136
0.0216695
0.0251115
0.0260791
0.0254991
0.0219646
0.0193591
0.0180083
0.0165397
0.0174212
0.0197411
0.0211935
0.0216972
0.0200953
0.0186229
0.0181764
0.018035
0.017498
0.0176764
0.018288
0.0176058
0.0171094
0.0107089
0.01302
0.0153885
0.0188689
0.0207859
0.023408
0.0244943
0.0239873
0.021514
0.01872
0.0174361
0.0162731
0.0173482
0.0199553
0.0217802
0.0217099
0.0191714
0.0172169
0.0165557
0.0168892
0.0172589
0.0164337
0.0171441
0.0172931
0.0174732
0.0105526
0.0146781
0.0167352
0.0187247
0.0202465
0.0219117
0.0225944
0.0219147
0.0203481
0.0178354
0.0168689
0.0158401
0.0165131
0.0197185
0.0217424
0.0213213
0.0179479
0.0158078
0.0155032
0.0160956
0.0164008
0.016017
0.0163713
0.0175369
0.0175711
0.0106496
0.0177242
0.016036
0.0183212
0.0199997
0.0208682
0.0209024
0.0200875
0.0188901
0.0169679
0.0158563
0.0186808
0.0176724
0.0188005
0.0226176
0.0199315
0.0167902
0.0155183
0.0140851
0.0146456
0.0150532
0.0154954
0.0161574
0.017635
0.0174618
0.0109601
0.0198161
0.0190463
0.0179364
0.0197358
0.0199086
0.0194853
0.0189525
0.0181267
0.0162642
0.0159092
0.0280212
0.0222065
0.0253775
0.0242909
0.020898
0.0171205
0.015066
0.0136571
0.0136488
0.0143473
0.0144582
0.0155846
0.0167715
0.0174431
0.0102237
0.0207111
0.022125
0.0176354
0.0193777
0.0189837
0.0184692
0.0180474
0.017737
0.0158527
0.0148395
0.0333569
0.0312122
0.0293564
0.0244283
0.0216584
0.017904
0.0150167
0.0135371
0.013103
0.0131916
0.0138834
0.0153151
0.0172262
0.0179878
0.010279
0.0197966
0.0227544
0.0216487
0.0194025
0.0187486
0.0192302
0.0186411
0.0176241
0.0171097
0.0271161
0.0405973
0.0392901
0.0315816
0.0264635
0.0217162
0.0169405
0.0143586
0.0134657
0.0130025
0.0125387
0.0129675
0.0152816
0.0174021
0.0177133
0.00845349
0.0181603
0.0217571
0.0241011
0.0217083
0.0220131
0.0219323
0.022609
0.0238552
0.0308538
0.040373
0.0415607
0.0355599
0.0262483
0.0222361
0.0198867
0.0172284
0.0150679
0.0146995
0.0136272
0.0133697
0.0138859
0.0150147
0.0174815
0.0182355
0.0169949
0.0330924
0.0413598
0.0465607
0.0478883
0.0500421
0.0500869
0.0529682
0.0611349
0.0695691
0.0855225
0.0761666
0.0596449
0.0520195
0.0445284
0.0389563
0.0347783
0.0323114
0.0314458
0.0295013
0.0291719
0.0295435
0.0300956
0.0324833
0.0333061
0.0202592
0.0198329
0.0393164
0.0437668
0.0443928
0.0456347
0.0468212
0.0493508
0.0523278
0.0540594
0.0534717
0.0541823
0.0563919
0.05592
0.0566391
0.0587133
0.0609864
0.0740075
0.0750848
0.0787187
0.0791151
0.0760032
0.0802258
0.077909
0.0804623
0.319736
0.0705203
0.0477855
0.0571818
0.0840267
0.0935681
0.102924
0.104773
0.107452
0.11295
0.123758
0.123401
0.122401
0.114565
0.102867
0.0895956
0.0857939
0.0738964
0.0730441
0.0817826
0.0904407
0.0949868
0.0844885
0.08844
0.0856417
0.307639
0.0705282
0.0499377
0.0586501
0.0862277
0.0896031
0.0945441
0.0980744
0.0997465
0.0991443
0.102751
0.10323
0.11359
0.116965
0.108454
0.0997913
0.0812604
0.0673893
0.0681753
0.0691358
0.0768426
0.0689288
0.063979
0.0721157
0.0741564
0.307167
0.0753826
0.0536953
0.066061
0.0871536
0.0889563
0.0904824
0.0892648
0.0872712
0.0902034
0.0936823
0.101504
0.111877
0.107434
0.106343
0.0994097
0.0739114
0.0628309
0.0621194
0.0619809
0.0515733
0.0464663
0.046669
0.0612865
0.0576386
0.306216
0.0799159
0.058607
0.0584586
0.0850057
0.081281
0.0875628
0.0918791
0.0910712
0.0929715
0.0974046
0.0936032
0.100975
0.107498
0.104873
0.0938505
0.0711372
0.0641961
0.0688606
0.0551316
0.046279
0.0440858
0.040597
0.0511045
0.0471682
0.305695
0.0789326
0.0609893
0.0579536
0.0826529
0.0766609
0.0796031
0.0861743
0.0839448
0.0872408
0.0920877
0.0951134
0.100759
0.101405
0.0956166
0.0894862
0.0769281
0.0719545
0.0724524
0.0557572
0.04603
0.0430845
0.0363739
0.0517329
0.0527805
0.305019
0.0764218
0.0619026
0.0575844
0.0779703
0.0734677
0.0839527
0.0898023
0.0877264
0.0862916
0.093357
0.0964769
0.0933451
0.0945585
0.092191
0.090652
0.0779313
0.0744818
0.0868434
0.067744
0.0516517
0.0453162
0.0368655
0.0467672
0.0660469
0.305002
0.0727518
0.0614583
0.0587291
0.0725946
0.0702459
0.0743071
0.0864421
0.0899065
0.0905114
0.09525
0.0947528
0.0889819
0.086892
0.0932867
0.0906508
0.0764183
0.0790447
0.118877
0.0930478
0.0628148
0.048815
0.0395085
0.0407016
0.0457173
0.306217
0.0741747
0.0618052
0.0594254
0.0690029
0.0671907
0.0759183
0.081049
0.0866059
0.0894815
0.0949081
0.0928698
0.0829983
0.0853003
0.0859527
0.0864235
0.0593666
0.0869428
0.129005
0.114605
0.0795375
0.0567518
0.0392616
0.0398683
0.0487318
0.308072
0.0728396
0.0636988
0.0602798
0.0688414
0.0682231
0.0756505
0.0814653
0.0856443
0.0870061
0.0909146
0.0900647
0.0754508
0.078432
0.0870752
0.0821127
0.0533133
0.0885709
0.130317
0.128164
0.0961069
0.0644241
0.0448579
0.0490407
0.0631556
0.307718
0.0725188
0.0641872
0.0647704
0.0706182
0.0728032
0.0762331
0.0746964
0.0830341
0.0834041
0.0861949
0.0818135
0.0698179
0.07426
0.0861435
0.0741428
0.0621463
0.0893011
0.124321
0.128413
0.111882
0.0789473
0.0563429
0.0602215
0.0988276
0.308585
0.0719677
0.0706974
0.0738889
0.0745147
0.0698786
0.0698656
0.0714117
0.0804591
0.0801708
0.0816754
0.076778
0.0624757
0.0728155
0.0809859
0.0636136
0.0611902
0.0760042
0.119804
0.12679
0.124148
0.0974476
0.0729138
0.0893487
0.239752
0.308321
0.0786997
0.0684235
0.0822786
0.0810895
0.074647
0.0726168
0.068327
0.0796526
0.0779592
0.0776299
0.0723992
0.0578799
0.068225
0.0671372
0.0649337
0.0637429
0.0723387
0.114459
0.128191
0.126909
0.119556
0.100989
0.119429
0.22725
0.306951
0.106308
0.0742348
0.089256
0.0867764
0.0736606
0.0680666
0.064936
0.0729212
0.0763122
0.0701293
0.0671888
0.0556804
0.0577733
0.0614598
0.0581083
0.0604972
0.0736608
0.111649
0.124304
0.127706
0.124535
0.121065
0.116068
0.17388
0.307131
0.131348
0.0763591
0.0885044
0.0966903
0.0762166
0.0676465
0.063184
0.0705199
0.0740272
0.0641209
0.0610221
0.0498918
0.0530153
0.05402
0.0497358
0.06571
0.0724284
0.0989116
0.117949
0.127579
0.126381
0.125448
0.119655
0.159676
0.317807
0.143588
0.0675304
0.0856108
0.0891961
0.0863151
0.0767149
0.072932
0.0720179
0.0713482
0.056625
0.0538251
0.0508192
0.0494122
0.0530555
0.0559136
0.057879
0.0672661
0.0876948
0.106403
0.124443
0.127198
0.129965
0.144419
0.273601
0.338996
0.136787
0.05764
0.071282
0.0935733
0.085385
0.0720856
0.0727833
0.0743969
0.0654825
0.0535029
0.0511208
0.0488573
0.0470203
0.0482331
0.0589069
0.06952
0.0752191
0.088256
0.0988469
0.117037
0.126443
0.129782
0.160934
0.358643
0.356299
0.126616
0.0470965
0.0527335
0.0883934
0.0912696
0.0707768
0.0776098
0.0710643
0.0614321
0.0491186
0.0485488
0.0476962
0.0458813
0.0482399
0.0580329
0.072493
0.0827159
0.0937269
0.0992704
0.107803
0.120948
0.122029
0.14131
0.157533
0.367905
0.0980961
0.0420414
0.0514156
0.0699558
0.0788469
0.071509
0.0746776
0.0644137
0.0531264
0.0451845
0.0423311
0.0498269
0.0521861
0.0536653
0.0615206
0.0797404
0.0811194
0.0855823
0.0887786
0.0936088
0.108481
0.120041
0.133125
0.146009
0.366766
0.0733348
0.0505812
0.0628411
0.0666987
0.0739218
0.0776859
0.0675827
0.0566717
0.0430906
0.0407013
0.0444931
0.0569009
0.0596751
0.0681037
0.0688093
0.0779101
0.0841201
0.0904238
0.0935599
0.0943005
0.104735
0.108132
0.115499
0.113741
0.35521
0.0700027
0.0590518
0.0482086
0.0571611
0.0804735
0.0660147
0.0624568
0.0475296
0.0421606
0.0435015
0.0505142
0.0647681
0.0725779
0.0781627
0.0782452
0.0794679
0.0819964
0.077481
0.0802109
0.0836366
0.0894326
0.103638
0.104929
0.103153
0.341273
0.0635112
0.0636412
0.0534944
0.0613014
0.0768136
0.0602757
0.050798
0.0450843
0.0440212
0.0501008
0.0657801
0.0773458
0.0845232
0.0887517
0.0858189
0.08294
0.0773724
0.0740074
0.0776013
0.0832932
0.0871909
0.0965659
0.0916081
0.0870466
0.33151
0.076964
0.0545543
0.0542542
0.0749445
0.0775201
0.0636263
0.0552712
0.0496256
0.0559562
0.0697927
0.081321
0.0810205
0.0842394
0.0873975
0.0840653
0.0769593
0.0704481
0.0617563
0.0600568
0.0673534
0.0741721
0.0811377
0.0894368
0.082431
0.299011
0.0941145
0.068165
0.0646278
0.0798289
0.0777805
0.0709651
0.0712193
0.0763928
0.0834865
0.0882424
0.0807965
0.0822117
0.0818238
0.0781964
0.0740148
0.0674278
0.0624359
0.0594393
0.0492534
0.0523748
0.0579562
0.0659297
0.0648431
0.0667451
0.0209577
0.043517
0.0544372
0.0562406
0.0608798
0.063716
0.0684094
0.0776065
0.0883434
0.0983488
0.0978217
0.0857666
0.0675729
0.0567246
0.0491
0.0439358
0.0401209
0.0371941
0.0349067
0.0317683
0.0316417
0.0316486
0.0318159
0.033824
0.0354494
0.0200826
0.0206078
0.0286566
0.0382024
0.0462543
0.0471442
0.0499222
0.0483732
0.0463783
0.0458203
0.0461615
0.0497663
0.0522939
0.0617304
0.0678932
0.0734481
0.0798724
0.0862811
0.0924197
0.0930708
0.0880229
0.0835796
0.0890238
0.0854676
0.0919957
0.35117
0.121098
0.0538114
0.0585823
0.0686927
0.0701742
0.073149
0.0725941
0.0689775
0.0720918
0.0849417
0.0983943
0.114942
0.122183
0.108167
0.0985253
0.0845362
0.0889552
0.112204
0.115676
0.112066
0.104042
0.0983983
0.092462
0.0969858
0.345313
0.120954
0.0608873
0.0643848
0.0892106
0.0849113
0.0824193
0.0816823
0.087777
0.0962438
0.0984994
0.094969
0.108684
0.110996
0.108827
0.0983408
0.0943769
0.106512
0.108077
0.0884742
0.0823298
0.0785693
0.0740222
0.0794923
0.09543
0.342725
0.131577
0.0701725
0.072876
0.0894125
0.0880958
0.0814332
0.0834791
0.0860389
0.0976603
0.1004
0.0988772
0.105325
0.11192
0.103607
0.092181
0.093853
0.108387
0.104823
0.0818363
0.072385
0.0704642
0.0676116
0.0787313
0.130186
0.342214
0.135557
0.0785983
0.0722666
0.087241
0.0852673
0.0811383
0.0809327
0.0804352
0.0925104
0.10391
0.0956596
0.105975
0.108617
0.0981057
0.101197
0.0963191
0.121243
0.110211
0.0823075
0.068363
0.0670658
0.064864
0.0884533
0.172528
0.34125
0.137421
0.0839742
0.0742816
0.0820453
0.0782538
0.0833442
0.0838409
0.0852088
0.0903619
0.0913943
0.0996947
0.103079
0.101472
0.0931679
0.0932878
0.0956422
0.138003
0.122923
0.0871207
0.069392
0.0667552
0.0656124
0.0837325
0.213903
0.340825
0.133342
0.0884497
0.0719256
0.0772127
0.0798164
0.0779224
0.0837406
0.0834668
0.0959275
0.100673
0.103072
0.0950206
0.0992068
0.100986
0.098734
0.0930549
0.151189
0.140606
0.101802
0.0767346
0.0696478
0.0683992
0.0831692
0.152146
0.338787
0.129345
0.0862595
0.0735956
0.0682432
0.0754125
0.074529
0.0745153
0.0861165
0.0968183
0.102954
0.101407
0.0945003
0.0898935
0.0890815
0.0908315
0.0870069
0.156398
0.145825
0.114575
0.0814816
0.0709471
0.0653743
0.0823537
0.175997
0.339766
0.131815
0.0883236
0.072592
0.0668013
0.0675494
0.0733802
0.0710788
0.0760705
0.0929306
0.100341
0.100623
0.0936743
0.0885423
0.0942416
0.0917318
0.0884246
0.157265
0.140607
0.120189
0.0882512
0.0742971
0.075224
0.103466
0.270297
0.341601
0.129795
0.0914567
0.0759493
0.0658001
0.0638919
0.0684511
0.0645448
0.0729288
0.0901961
0.0965647
0.0975361
0.0900577
0.0865346
0.0955742
0.0870038
0.0842067
0.15896
0.145458
0.122385
0.0995812
0.0867364
0.0887578
0.12263
0.302366
0.342688
0.13008
0.0935445
0.0805816
0.0681398
0.0621948
0.0590925
0.0611009
0.0797696
0.0841896
0.0912253
0.0977332
0.090203
0.0843147
0.0898246
0.0830239
0.0853837
0.146268
0.15034
0.128247
0.116036
0.106277
0.113455
0.160251
0.380763
0.340283
0.140252
0.0952874
0.0892352
0.0746545
0.0693258
0.0610687
0.0549564
0.0795943
0.0869013
0.0893725
0.0895977
0.090803
0.0835612
0.0906163
0.0923527
0.0955569
0.136953
0.152992
0.135306
0.128891
0.128757
0.142911
0.203076
0.407965
0.336801
0.149513
0.0932431
0.0894738
0.0813482
0.0724508
0.0634459
0.0559766
0.0828888
0.0910853
0.0899058
0.0870563
0.0894679
0.0937358
0.0936318
0.09237
0.0981644
0.1184
0.152192
0.140132
0.132847
0.134954
0.162981
0.197905
0.303909
0.33611
0.161683
0.0953398
0.0894232
0.0854123
0.0763005
0.0672746
0.0559533
0.0740731
0.0936815
0.0891085
0.0897458
0.084711
0.0845048
0.0874016
0.0940473
0.0945724
0.107648
0.138748
0.141138
0.138327
0.134612
0.160636
0.167849
0.239577
0.337633
0.166105
0.101452
0.0879821
0.0895523
0.0870121
0.072926
0.0674648
0.079194
0.0938444
0.0884141
0.0911227
0.0918655
0.0861831
0.0884953
0.089355
0.0913457
0.101977
0.121561
0.132905
0.141166
0.141391
0.177731
0.244777
0.351927
0.340107
0.163282
0.10631
0.0850876
0.0872303
0.0985257
0.0931058
0.082702
0.086823
0.095087
0.0877723
0.0867986
0.0858116
0.0882618
0.0909333
0.099747
0.101599
0.0958594
0.106459
0.120036
0.139444
0.143983
0.180001
0.316587
0.701379
0.342871
0.162529
0.106425
0.0846497
0.0958362
0.0971369
0.0978111
0.0982218
0.101384
0.0941194
0.0889349
0.0873688
0.0881262
0.0883824
0.0965479
0.104612
0.101312
0.0970283
0.104687
0.107731
0.1234
0.144172
0.183549
0.327199
0.633026
0.345691
0.155542
0.108916
0.0887439
0.101947
0.0970978
0.102074
0.109987
0.0919024
0.0942199
0.0903932
0.0877079
0.0875883
0.0882801
0.0941895
0.106118
0.110827
0.103947
0.104265
0.102358
0.105534
0.136781
0.134112
0.174648
0.408799
0.346106
0.14409
0.108153
0.0880189
0.0930114
0.104146
0.102763
0.106898
0.0889051
0.0938951
0.0919807
0.0826204
0.0818379
0.0807251
0.0922797
0.10483
0.108668
0.102354
0.1005
0.0929609
0.0970411
0.113419
0.148462
0.13994
0.231331
0.345415
0.136431
0.105267
0.09911
0.0997759
0.100187
0.105593
0.110871
0.0865941
0.0992207
0.0881888
0.0828598
0.0787958
0.0830412
0.0904504
0.0962322
0.102982
0.103055
0.0977801
0.0982491
0.0983552
0.103146
0.116723
0.143021
0.108034
0.340535
0.129471
0.109842
0.103379
0.0979011
0.094303
0.104393
0.100133
0.0917771
0.085539
0.0831365
0.0835619
0.0832275
0.0841105
0.0842092
0.0863349
0.0917794
0.0960539
0.0973738
0.0960289
0.0868589
0.0902729
0.0989955
0.107199
0.112033
0.333477
0.125975
0.102811
0.11618
0.105054
0.0928345
0.0909847
0.098928
0.0834823
0.0818458
0.0788739
0.0886706
0.0924215
0.0936809
0.0881103
0.0815824
0.0789589
0.0827758
0.0817479
0.0832581
0.0819779
0.0803658
0.0850721
0.084009
0.0812578
0.323613
0.116909
0.121255
0.123113
0.107315
0.0986798
0.100268
0.101033
0.0916825
0.0927668
0.090061
0.0982786
0.0954504
0.101569
0.095715
0.0855897
0.0798509
0.0730762
0.0673034
0.0694153
0.0674211
0.067529
0.0729744
0.0728438
0.07226
0.283647
0.102024
0.112567
0.098349
0.101241
0.105133
0.107961
0.108621
0.0983921
0.105176
0.0952091
0.0956212
0.0960017
0.0980454
0.0983448
0.089755
0.0820655
0.0754598
0.0699658
0.0621121
0.0632072
0.0647381
0.0698304
0.0696238
0.0672464
0.0210906
0.0418079
0.0605979
0.0671036
0.0722943
0.0812478
0.0964608
0.107833
0.112762
0.119158
0.10034
0.0852234
0.0745024
0.0633296
0.0520144
0.0449645
0.0406292
0.0383934
0.0349428
0.0314295
0.0314717
0.0306205
0.0315232
0.0337919
0.0356287
0.0203005
0.0203579
0.0220504
0.0387388
0.0477961
0.049147
0.0517333
0.0507279
0.0504507
0.0502009
0.0507315
0.0530305
0.058953
0.065068
0.0759334
0.0822023
0.0861206
0.0909393
0.0924176
0.0895673
0.0888615
0.0888
0.0901085
0.091063
0.0947999
0.345222
0.145813
0.0654872
0.0699817
0.071356
0.0717634
0.0739324
0.07047
0.0684546
0.0682019
0.0755181
0.0831532
0.100511
0.116428
0.112838
0.108748
0.102049
0.125607
0.122779
0.12185
0.118229
0.113045
0.106245
0.101957
0.116108
0.34201
0.14267
0.0747992
0.0821394
0.104524
0.0998895
0.0877952
0.0824164
0.0921668
0.115381
0.116456
0.104797
0.104401
0.106794
0.11303
0.100827
0.116945
0.11763
0.111698
0.0956892
0.0868548
0.0860926
0.0840359
0.0910818
0.136428
0.338825
0.151987
0.0873452
0.0826249
0.0998681
0.0955777
0.0826365
0.0812897
0.0898172
0.102434
0.10298
0.108066
0.0992627
0.105175
0.0974135
0.108084
0.109087
0.120776
0.110449
0.0899742
0.0795674
0.0802022
0.079143
0.107607
0.287537
0.33761
0.152345
0.0933621
0.084445
0.088359
0.0870895
0.0823883
0.0787906
0.0815533
0.100646
0.114185
0.113495
0.105874
0.102974
0.0925822
0.103625
0.122364
0.12926
0.112143
0.0895042
0.0794614
0.0774696
0.0772865
0.127246
0.336523
0.337345
0.151116
0.0950641
0.0827472
0.0828624
0.0887772
0.0924268
0.0917289
0.0942071
0.0974896
0.110585
0.110039
0.0959388
0.0853214
0.0969732
0.0909693
0.130756
0.131752
0.113545
0.0923407
0.0774328
0.0732375
0.0826105
0.152951
0.40875
0.33797
0.149819
0.0976319
0.0827072
0.0790737
0.08551
0.0927266
0.0955951
0.095559
0.0986284
0.107271
0.114635
0.0970854
0.0823679
0.0863666
0.102513
0.141875
0.132812
0.113616
0.094421
0.0787497
0.0750148
0.08337
0.145389
0.414445
0.337784
0.151358
0.100724
0.0778846
0.0764772
0.0801949
0.081575
0.0846902
0.0919597
0.0978573
0.106806
0.112278
0.0955353
0.090849
0.0868967
0.0986321
0.146293
0.135005
0.109256
0.0967878
0.0823019
0.0791379
0.0942229
0.144076
0.374249
0.338974
0.154305
0.107149
0.0803898
0.0691449
0.0709458
0.0695393
0.0747327
0.0828356
0.0904313
0.104984
0.107067
0.0905308
0.0976947
0.0909964
0.103462
0.145235
0.142728
0.108066
0.101908
0.0879731
0.0878917
0.116545
0.193737
0.566782
0.340261
0.154391
0.108597
0.0833584
0.0707134
0.0658874
0.0626163
0.0669512
0.0806299
0.0956124
0.102393
0.103544
0.0885664
0.0929093
0.084575
0.0930669
0.141227
0.148092
0.119598
0.105615
0.100706
0.104048
0.139895
0.246604
0.612974
0.34304
0.157736
0.104162
0.0878028
0.0730833
0.0655364
0.058975
0.0573176
0.0807133
0.0878427
0.0990266
0.0980072
0.0858855
0.0946806
0.081912
0.0837912
0.13306
0.158744
0.128982
0.117178
0.115888
0.128379
0.170096
0.255903
0.605815
0.342805
0.156255
0.101389
0.0890102
0.0785792
0.0711867
0.0590214
0.0576031
0.0783918
0.08783
0.0977242
0.0930372
0.0835136
0.0843469
0.0828913
0.0858813
0.0926828
0.163152
0.14164
0.128514
0.12729
0.145745
0.179732
0.253645
0.482762
0.339247
0.152757
0.10019
0.08885
0.0820933
0.0787383
0.0654709
0.0650161
0.0809823
0.0936896
0.094796
0.0853197
0.080155
0.0858109
0.0784217
0.0894113
0.0961456
0.139503
0.14895
0.130755
0.128647
0.143067
0.164872
0.189893
0.354136
0.336877
0.151743
0.10322
0.0880016
0.0810573
0.0753312
0.0700836
0.0731827
0.0769748
0.0953381
0.0915863
0.0843471
0.0783084
0.0928064
0.115489
0.120104
0.113513
0.114427
0.150781
0.131123
0.122979
0.133838
0.167813
0.173253
0.311831
0.335072
0.148739
0.112869
0.104062
0.087634
0.082707
0.0817828
0.0709813
0.0806649
0.0894514
0.08865
0.082527
0.0775
0.101782
0.125879
0.124318
0.114454
0.120308
0.135825
0.133272
0.134038
0.127579
0.170902
0.229903
0.415912
0.337683
0.155999
0.114443
0.11496
0.0967175
0.105049
0.101903
0.0930884
0.0867577
0.0918258
0.0827893
0.0826835
0.078875
0.11727
0.123903
0.117099
0.114633
0.109036
0.117934
0.117329
0.134757
0.128375
0.154858
0.233141
0.518856
0.336866
0.169254
0.129372
0.116717
0.113365
0.103769
0.116726
0.115702
0.104395
0.0990487
0.0846191
0.08171
0.0895573
0.116442
0.123883
0.122461
0.100546
0.105352
0.0976539
0.103453
0.11814
0.138125
0.139583
0.202253
0.421042
0.339369
0.179891
0.135926
0.122406
0.117847
0.099748
0.106846
0.114543
0.107945
0.0987733
0.0881776
0.0808206
0.093261
0.118073
0.126141
0.124468
0.108594
0.0986176
0.101859
0.103601
0.100915
0.12679
0.133789
0.174564
0.281594
0.343229
0.186786
0.13888
0.12733
0.120548
0.102911
0.10654
0.108612
0.107851
0.0955816
0.0981066
0.0800823
0.0929685
0.11003
0.120772
0.117228
0.110291
0.0984914
0.0995069
0.105101
0.100236
0.110704
0.142627
0.15454
0.21779
0.344764
0.187527
0.14122
0.134347
0.122329
0.110044
0.103552
0.103483
0.103804
0.0917161
0.0899318
0.0898981
0.0870613
0.103188
0.111835
0.116195
0.106154
0.101104
0.100821
0.108163
0.103554
0.106905
0.123742
0.133141
0.098132
0.34858
0.184068
0.140203
0.137397
0.123689
0.0994882
0.101812
0.101205
0.10705
0.102085
0.0981031
0.0879345
0.0917487
0.0957555
0.103156
0.107027
0.111369
0.110162
0.106209
0.107666
0.10332
0.100803
0.0952808
0.102848
0.108944
0.348915
0.176435
0.139756
0.139593
0.105215
0.10432
0.10803
0.106024
0.099368
0.0957376
0.0925791
0.0848348
0.0863719
0.0972283
0.0954731
0.0943447
0.0941708
0.0959706
0.100406
0.0994175
0.0991204
0.0902177
0.0976344
0.0897452
0.0876697
0.335389
0.15616
0.146034
0.132617
0.11313
0.115101
0.106382
0.108243
0.102477
0.093641
0.0990569
0.0895605
0.0930537
0.0944332
0.0963439
0.0900331
0.0825992
0.0798003
0.0762952
0.075936
0.0799857
0.0783256
0.0750407
0.0794169
0.0734426
0.276772
0.0975472
0.14233
0.119331
0.100017
0.102764
0.110512
0.106922
0.104664
0.0939829
0.0950565
0.0881358
0.0903246
0.0965575
0.0957736
0.0915184
0.0853554
0.0785824
0.0776643
0.0698934
0.0676549
0.0732479
0.0692441
0.0682104
0.0661969
0.0218321
0.040153
0.0643085
0.0726783
0.0762727
0.0871855
0.0983574
0.104078
0.110709
0.119844
0.105596
0.087328
0.0692274
0.0572591
0.047412
0.0415864
0.038713
0.0367135
0.0336315
0.0325202
0.0320285
0.0323243
0.031375
0.0345137
0.0344066
0.021173
0.0196545
0.0189893
0.0432255
0.049231
0.050155
0.0519185
0.0506963
0.0505135
0.051025
0.0512969
0.0530281
0.059203
0.0640685
0.0733436
0.0880934
0.0858229
0.085247
0.0844634
0.084783
0.0851574
0.0830278
0.0863776
0.0848255
0.092902
0.324098
0.151848
0.094183
0.094183
0.101603
0.0913744
0.0861913
0.0878775
0.0941108
0.112315
0.131875
0.12889
0.132773
0.119345
0.108249
0.110009
0.133614
0.122916
0.116899
0.109453
0.108055
0.110855
0.115314
0.111095
0.144938
0.338968
0.156134
0.0905904
0.100691
0.119629
0.10408
0.0855186
0.0879527
0.10624
0.140793
0.119745
0.0924095
0.109572
0.103366
0.103389
0.111285
0.110142
0.109664
0.105318
0.0984177
0.0943073
0.0949273
0.0955171
0.110079
0.222908
0.339083
0.156302
0.0997089
0.0964844
0.103342
0.0971844
0.0875198
0.0881635
0.106479
0.122846
0.119173
0.10664
0.107679
0.0924293
0.0976907
0.104372
0.111604
0.110556
0.10589
0.0961043
0.0908355
0.0908112
0.103002
0.167216
0.441307
0.338856
0.151567
0.103455
0.0844247
0.0859438
0.0908013
0.0899124
0.0893197
0.0979525
0.126627
0.137459
0.117517
0.099518
0.0870993
0.0863474
0.109254
0.123637
0.111912
0.104979
0.0928922
0.0858292
0.0941734
0.12635
0.201101
0.480258
0.338842
0.150994
0.109065
0.0862889
0.0906712
0.0985228
0.101947
0.097732
0.0980865
0.106627
0.115173
0.124162
0.100594
0.0837837
0.0819603
0.119856
0.128014
0.10928
0.100958
0.0891999
0.0813403
0.10062
0.130663
0.189461
0.390021
0.33976
0.157056
0.114064
0.0872422
0.0892105
0.0983564
0.108831
0.109533
0.0992093
0.0990219
0.114442
0.12986
0.102372
0.0896005
0.114705
0.131451
0.131076
0.105525
0.0991686
0.0905971
0.088615
0.11046
0.135674
0.228174
0.498606
0.342392
0.161169
0.118922
0.0907642
0.0804701
0.0838615
0.0865577
0.0881797
0.0940681
0.104708
0.116673
0.121816
0.0995892
0.0960315
0.123411
0.139238
0.136113
0.109232
0.0987401
0.0924348
0.093285
0.11441
0.133563
0.218941
0.446922
0.345195
0.164653
0.123068
0.0945045
0.0831567
0.0755121
0.0691101
0.0728854
0.0825135
0.101979
0.11195
0.115258
0.0964905
0.0999532
0.125579
0.148281
0.147953
0.111597
0.0972596
0.0999848
0.105456
0.126444
0.151967
0.25079
0.532677
0.345631
0.169415
0.123655
0.0945399
0.0829584
0.07379
0.0680581
0.0718202
0.0760124
0.0970947
0.105652
0.106703
0.0924781
0.101616
0.135935
0.150911
0.158183
0.124706
0.109555
0.108553
0.119571
0.148166
0.164801
0.234275
0.382643
0.346118
0.172538
0.119184
0.0934847
0.0819354
0.072259
0.0662779
0.0682499
0.071201
0.0945788
0.103429
0.100381
0.0909457
0.0996944
0.126045
0.143536
0.169984
0.138613
0.117521
0.120364
0.131079
0.155509
0.15533
0.186786
0.306213
0.344444
0.176888
0.11802
0.0923972
0.0808023
0.0760067
0.0680474
0.0638896
0.0720932
0.095324
0.100449
0.0915557
0.0863523
0.0997044
0.114721
0.125647
0.173448
0.170592
0.128078
0.128525
0.128177
0.144385
0.13345
0.112217
0.278451
0.341245
0.181653
0.120277
0.0937862
0.0815382
0.0764439
0.0689388
0.0660217
0.0770432
0.0969037
0.0950773
0.0886539
0.0845465
0.0931893
0.129583
0.136561
0.143589
0.212102
0.135988
0.131198
0.120041
0.140756
0.15884
0.171793
0.310883
0.340355
0.186989
0.126491
0.0959054
0.0786611
0.073971
0.0722539
0.0662568
0.075804
0.0977075
0.0916449
0.0858915
0.0900128
0.101913
0.144506
0.204599
0.163945
0.179738
0.148191
0.12399
0.109348
0.129299
0.161341
0.231516
0.434458
0.343512
0.185271
0.125631
0.110804
0.0935497
0.088177
0.0821227
0.0708244
0.0755542
0.0985503
0.0886085
0.0852519
0.0914243
0.119786
0.108208
0.141912
0.171848
0.164725
0.155865
0.113572
0.109599
0.117152
0.157408
0.240519
0.559789
0.358086
0.182573
0.12587
0.112566
0.108215
0.109031
0.108486
0.0999453
0.0774353
0.0968296
0.0856234
0.0826305
0.0989414
0.120726
0.115219
0.10889
0.134604
0.146919
0.144933
0.106753
0.102537
0.109491
0.141179
0.19322
0.440742
0.367471
0.175033
0.127836
0.120075
0.111737
0.11503
0.119584
0.119554
0.105623
0.0991155
0.0880447
0.0809582
0.0988453
0.116102
0.110867
0.103504
0.102743
0.12115
0.118076
0.106584
0.093898
0.108831
0.127403
0.165779
0.306966
0.362724
0.177181
0.135263
0.13285
0.127669
0.114472
0.105439
0.11275
0.115817
0.0994997
0.0832939
0.0775072
0.0910345
0.110199
0.118221
0.101423
0.097745
0.102649
0.112906
0.109619
0.0973363
0.0892463
0.11479
0.159121
0.319795
0.354396
0.171622
0.142027
0.140248
0.128514
0.126384
0.116287
0.11659
0.112481
0.104095
0.0836868
0.0772278
0.0868469
0.101748
0.114506
0.102471
0.0993877
0.109022
0.113424
0.115083
0.106186
0.0941364
0.097359
0.105428
0.100764
0.343483
0.165225
0.14609
0.145245
0.139121
0.125568
0.11572
0.109419
0.104615
0.105023
0.0911102
0.07828
0.078237
0.0930894
0.105286
0.108776
0.109728
0.109747
0.108344
0.114001
0.112927
0.101908
0.102875
0.0955131
0.0948553
0.336914
0.153089
0.146623
0.13548
0.119643
0.113006
0.106568
0.105905
0.101925
0.0996484
0.100597
0.0900588
0.0867979
0.0854892
0.0948608
0.102982
0.109701
0.103847
0.11411
0.111895
0.110764
0.0994766
0.0985973
0.094641
0.0854704
0.33753
0.153482
0.149336
0.133352
0.111024
0.129085
0.11793
0.110654
0.0997254
0.100009
0.0952539
0.0910665
0.0948896
0.087543
0.0881523
0.09103
0.0991669
0.107234
0.107529
0.102824
0.104118
0.097477
0.0921197
0.0926008
0.0879412
0.345726
0.150389
0.14849
0.140357
0.119403
0.11247
0.109146
0.109397
0.104328
0.107587
0.0959043
0.0886016
0.0933157
0.0929821
0.0931111
0.087416
0.084458
0.0907019
0.0920735
0.0912586