/*--------------------------------*- C++ -*----------------------------------*\
  =========                 |
  \\      /  F ield         | OpenFOAM: The Open Source CFD Toolbox
   \\    /   O peration     | Website:  https://openfoam.org
    \\  /    A nd           | Version:  11
     \\/     M anipulation  |
\*---------------------------------------------------------------------------*/
FoamFile
{
    format      ascii;
    class       volScalarField;
    location    "10";
    object      p;
}
// * * * * * * * * * * * * * * * * * * * * * * * * * * * * * * * * * * * * * //

dimensions      [0 2 -2 0 0 0 0];

internalField   nonuniform List<scalar> 
17196
(
3.69138
3.90111
4.28514
5.1215
7.5763
10.5921
13.1036
15.2292
16.841
17.0476
15.4624
13.037
10.9106
9.3632
8.38938
7.70432
7.15763
5.71737
3.01835
1.0651
-0.00858741
-0.948032
-0.554701
0.606569
1.2371
3.75108
3.67069
3.67311
4.6327
7.53977
10.9336
13.5689
15.9658
18.0104
18.5107
16.8386
13.9976
11.2438
9.31413
7.97944
7.0753
6.54577
5.26036
2.29188
0.337795
-0.571625
-1.30203
-0.983595
-0.0552539
0.562684
3.76505
3.44907
3.17162
4.13421
7.30066
11.0056
13.7395
16.3115
18.6998
19.6733
18.4781
15.5206
12.112
9.47483
7.73406
6.79485
6.41839
5.32693
2.5396
0.149689
-0.766948
-1.02496
-0.80354
-0.368233
0.268241
3.73022
3.39416
2.83587
3.35604
6.41462
10.1829
13.0386
15.669
18.3577
19.799
19.007
16.2264
12.6972
9.77398
7.90316
7.02869
6.77149
5.91631
3.47467
0.539836
-0.707635
-0.788354
-0.481654
-0.202918
0.373213
3.65556
3.41802
2.52847
2.38037
5.0121
8.50407
11.3934
14.0069
17.1002
19.1092
18.527
15.865
12.548
9.78892
8.04292
7.42077
7.31039
6.61356
4.55078
1.60714
-0.0890081
-0.385121
-0.219048
-0.283544
0.303605
3.5521
3.41646
2.15807
1.36137
3.3523
6.3142
9.12265
11.5838
15.1403
17.6706
17.3934
14.775
11.7277
9.42611
8.12272
7.93169
7.99516
7.20995
5.15088
2.38698
0.539709
0.012514
-0.0871662
-0.517246
0.170395
3.42927
3.37556
1.73796
0.30332
1.61453
4.02388
6.74825
9.07449
13.035
15.765
15.7774
13.2281
10.4418
8.74019
8.18548
8.56275
8.58898
7.54091
5.15931
2.46784
0.771337
0.153682
-0.215401
-0.565422
0.0840761
3.28116
3.34459
1.3791
-0.615015
0.0360386
1.99859
4.70697
7.11591
11.1443
13.7135
13.7748
11.3618
8.88509
7.87635
8.2935
9.12574
8.90232
7.51778
4.88949
2.12215
0.540516
0.0162684
-0.53273
-0.741421
0.0254799
3.1344
3.3506
1.12951
-1.2637
-1.24394
0.419857
3.13306
5.85253
9.58855
11.7374
11.6657
9.44806
7.33711
7.05886
8.37984
9.32739
8.76957
7.16833
4.71057
1.94325
0.253169
-0.288892
-0.84483
-0.833864
-0.0179034
3.00247
3.39263
0.955049
-1.66147
-2.12311
-0.689563
2.04985
5.05417
8.29671
9.93167
9.64878
7.66043
5.9179
6.3013
8.03246
8.73985
8.06214
6.55553
4.41397
1.95192
0.303429
-0.497561
-1.04379
-0.748128
-0.0419171
2.92019
3.48438
0.860286
-1.86465
-2.53635
-1.30531
1.48419
4.62379
7.29435
8.42432
7.95266
6.21697
4.7842
5.51694
6.90813
7.22046
6.56597
5.36782
3.59927
1.44501
0.124698
-0.622469
-1.10113
-0.699214
-0.135704
2.8646
3.56115
0.814314
-1.94944
-2.63611
-1.48729
1.38596
4.42187
6.4977
7.18475
6.61311
5.09355
3.90608
4.43575
4.83791
4.79674
4.25335
3.39999
1.84584
0.00406161
-0.782286
-1.0968
-1.30834
-0.602496
-0.3333
2.83937
3.60319
0.820682
-1.99809
-2.58034
-1.3195
1.54782
4.30807
5.83821
6.19578
5.65467
4.26994
3.22136
2.89714
2.34825
1.92119
1.51823
0.948246
-0.571856
-2.25714
-2.5125
-1.94747
-1.63328
-0.609201
-0.47524
2.82896
3.53087
0.78301
-2.115
-2.58203
-1.03836
1.68372
4.08731
5.19355
5.3301
4.89741
3.70459
2.66286
1.30034
-0.186656
-0.969252
-1.20219
-1.47782
-2.96825
-4.71039
-4.65939
-2.983
-1.84667
-0.528049
-0.176906
2.78903
3.37368
0.657057
-2.28844
-2.80589
-1.04144
1.60275
3.65503
4.48217
4.52082
4.30251
3.54354
2.51958
0.193477
-2.02756
-3.13872
-3.25586
-3.19056
-4.46061
-6.37157
-6.47902
-4.00052
-1.87474
-0.465233
0.786936
2.7378
3.14355
0.226352
-2.74701
-3.42409
-1.60867
1.04124
2.84602
3.53095
3.64811
3.82105
3.78339
2.71669
-0.204001
-2.89439
-4.24403
-4.28122
-3.83182
-4.64942
-6.56172
-7.29511
-4.76937
-1.9647
-1.22923
0.693661
2.73723
2.91403
-0.294648
-3.53499
-4.58563
-2.66325
0.03943
1.65011
2.30254
2.72673
3.46706
4.31966
3.19592
-0.0562909
-2.95384
-4.38068
-4.27161
-3.44861
-3.66178
-5.21493
-6.618
-4.9364
-2.03648
-1.55475
0.462862
2.81188
2.71592
-0.670641
-4.36157
-5.91558
-4.20365
-1.59916
-0.195399
0.685545
1.75943
3.22363
4.71338
3.63214
0.292035
-2.64322
-4.0002
-3.73178
-2.62135
-2.27192
-3.20356
-4.82619
-4.33573
-1.78846
-0.924477
0.355442
2.99353
2.64454
-0.820114
-4.6818
-6.60765
-5.78664
-3.75126
-2.38552
-0.929569
1.08035
3.21279
4.86092
3.89274
0.820055
-2.05247
-3.30009
-2.95607
-1.71206
-0.99352
-1.32867
-2.77642
-3.13583
-1.22181
-0.0403557
0.653463
3.35171
2.8144
-0.656855
-4.43577
-6.46264
-6.35627
-4.98515
-3.45813
-1.43811
1.22285
3.55822
4.78725
4.10309
1.62586
-1.08734
-2.30319
-2.01529
-0.870333
-0.0381678
-0.0580755
-1.19992
-1.90268
-0.590557
0.618246
1.08361
3.91169
3.20142
-0.135176
-3.62983
-5.39119
-5.36866
-4.1889
-2.50664
-0.391128
2.27712
4.10057
4.76024
4.42087
2.74462
0.351797
-0.756375
-0.605449
0.166249
0.752396
0.626288
-0.365509
-1.0341
-0.0844071
1.19955
1.50701
4.60385
3.79634
0.847777
-2.08808
-3.38972
-3.09387
-1.93281
-0.302842
1.65201
3.82361
4.80089
4.52283
4.61447
3.9743
2.37448
1.58192
1.58376
1.84966
1.85428
1.2433
0.135787
-0.395206
0.343885
1.43479
1.53108
5.22013
4.54791
2.17954
-0.173779
-1.18726
-0.721226
0.674719
2.45619
4.29672
5.66837
5.69717
4.71285
4.81877
5.10781
4.46488
4.07025
4.09338
4.0078
3.42435
2.2163
0.934946
0.456723
0.771668
1.59855
1.76741
5.65484
5.33757
3.64305
1.54449
0.252725
0.736118
2.66622
4.98009
6.90484
7.84189
7.05675
5.55727
5.52924
6.13074
5.84977
5.54211
5.58811
5.39385
4.54362
3.04879
1.64336
1.01845
0.689372
1.17411
1.48873
5.9286
5.75228
4.5274
2.52988
0.979201
1.48095
3.76357
6.53024
8.82818
9.65358
8.56253
6.96559
6.57993
7.06598
6.59824
5.94815
5.66917
5.347
4.34771
2.65047
0.941131
0.0731626
-0.433918
0.1877
1.03673
2.79127
2.36584
1.49201
1.31363
3.53814
6.91897
9.22495
10.3059
10.6671
10.3803
9.47016
8.15392
7.02032
6.34952
5.69724
4.98988
4.31598
3.22127
1.79979
0.490388
-0.69193
-2.02675
-2.16508
-0.510908
0.532336
2.78684
2.11575
0.727683
0.439048
2.90499
6.58861
9.06407
10.2666
10.7358
10.5032
9.40752
7.7599
6.12207
5.06855
4.33056
3.62523
3.15271
1.99984
0.248175
-0.744793
-1.44436
-2.3654
-2.43946
-1.22943
-0.192728
2.75143
2.06001
0.227928
-0.337282
2.04517
5.48839
7.87224
9.13552
9.87212
9.91436
8.8217
6.94467
5.08093
3.97448
3.41137
3.24431
3.26877
2.18714
-0.0652865
-1.31217
-1.6031
-2.03491
-1.89345
-1.13055
-0.233985
2.65473
2.04595
-0.168545
-1.13852
0.627153
3.42601
5.61879
6.89492
7.7342
8.36882
7.72235
6.00243
4.28421
3.33111
3.05295
3.30198
3.69487
3.0049
0.492342
-1.53593
-1.98941
-1.86473
-1.60856
-1.26304
-0.340965
2.51638
2.01716
-0.486026
-1.96541
-0.961351
1.26389
3.3042
4.54649
5.25537
6.6029
6.76053
5.33094
3.8179
3.13953
3.15082
3.79268
4.58239
4.31418
1.63601
-1.08081
-1.77495
-1.27732
-1.03017
-1.27264
-0.337495
2.37124
2.01211
-0.831797
-2.80532
-2.4485
-0.765336
1.03321
2.15932
2.94732
4.91841
6.14174
5.06592
3.60323
3.06786
3.421
4.5347
5.73911
5.72206
2.79978
-0.489471
-1.52069
-0.933822
-0.660459
-1.14467
-0.282543
2.23623
2.01336
-1.16231
-3.61169
-3.74834
-2.58383
-1.18334
-0.0494196
1.2709
3.75883
5.91849
5.11888
3.41124
2.99528
3.65322
5.30242
6.94731
7.01257
3.49471
-0.551552
-1.81853
-1.17405
-0.837112
-1.0803
-0.0354715
2.11145
2.0459
-1.36977
-4.30956
-4.8146
-4.0502
-3.00804
-1.68486
0.440837
3.3782
5.91958
5.06809
2.83404
2.49403
3.62934
6.12802
8.1177
7.95466
3.71589
-1.19125
-2.75068
-1.86146
-1.38142
-1.23396
-0.0874014
2.00452
2.11718
-1.47897
-4.80701
-5.72971
-5.18054
-4.27287
-2.62698
0.340485
3.49056
5.79305
4.53928
1.80616
1.40001
3.50194
6.66798
8.50019
7.65842
2.86612
-2.41892
-4.22415
-3.2455
-2.26018
-1.49233
-0.23137
1.93518
2.23803
-1.5866
-5.04807
-6.39319
-5.9628
-5.01497
-2.95701
0.5641
3.57127
5.25716
3.45635
0.324565
-0.239182
2.61596
5.6718
6.91098
5.25175
-0.224904
-5.52818
-6.61617
-5.20781
-3.59912
-1.99795
-0.432344
1.89782
2.30149
-1.64388
-5.0059
-6.69803
-6.47111
-5.3864
-2.91152
0.858292
3.60256
4.57344
2.24833
-1.31475
-2.10802
0.347081
2.81358
3.47819
1.17779
-4.96472
-10.5593
-10.995
-8.37647
-5.30624
-2.75576
-0.771332
1.87062
2.26256
-1.63429
-4.73163
-6.65425
-6.66878
-5.40968
-2.61614
1.15266
3.65337
4.01618
1.29137
-2.64182
-4.04364
-2.4797
-0.795594
-0.512267
-3.09604
-9.59638
-15.6708
-16.0016
-12.3613
-7.77208
-3.8988
-1.26443
1.8589
2.13626
-1.59254
-4.29095
-6.27394
-6.4557
-4.99909
-2.04036
1.55442
3.72263
3.69967
0.789013
-3.41855
-5.65137
-5.08202
-3.98035
-3.60708
-5.97765
-12.2853
-18.61
-19.4383
-15.3876
-9.992
-5.32419
-1.78011
1.87573
2.0003
-1.56408
-3.72122
-5.45698
-5.64717
-4.13439
-1.1634
2.1044
3.72053
3.51783
0.789929
-3.44238
-6.5835
-6.82506
-5.92818
-5.14762
-6.85963
-12.5169
-18.8841
-20.3412
-16.4092
-10.9776
-6.25595
-1.9663
1.93885
1.93816
-1.68182
-3.17849
-4.35842
-4.42266
-3.01337
-0.129621
2.48913
3.47613
3.3557
1.28328
-2.49509
-6.33839
-7.30332
-6.49199
-5.27003
-6.01702
-10.3667
-16.4967
-18.8776
-15.8249
-10.7744
-6.47929
-1.79934
2.05105
1.88805
-1.98067
-3.11835
-3.63676
-3.54162
-2.00092
0.474945
2.18173
2.74051
3.01676
2.04453
-0.8404
-4.84597
-6.58507
-6.10834
-4.76184
-4.69035
-7.36123
-12.4328
-15.6506
-14.2981
-10.1248
-6.35813
-1.84917
2.21694
1.83813
-2.46198
-3.93118
-3.87857
-3.42712
-1.57675
0.0622602
0.877659
1.3779
2.3639
2.77759
1.07111
-2.65167
-5.07696
-5.10404
-3.92706
-3.50428
-4.89485
-8.40246
-11.5503
-11.9405
-9.34724
-5.81778
-1.40858
2.46649
1.86053
-3.02487
-5.4304
-5.17257
-3.75492
-2.19832
-1.73759
-1.43165
-0.430683
1.48511
3.224
2.59823
-0.588869
-3.49135
-3.93022
-2.94353
-2.38479
-3.0965
-5.31274
-7.90404
-9.35244
-8.44201
-5.21716
-0.776009
2.85471
2.03174
-3.42027
-6.71609
-6.95855
-5.38751
-4.65072
-4.80684
-4.00471
-1.80064
1.07781
3.71701
3.68249
1.05826
-2.03643
-2.71854
-1.9403
-1.32539
-1.77001
-3.25611
-5.33064
-7.14327
-7.28408
-4.61228
-0.509487
3.41046
2.41138
-3.4335
-7.32959
-8.56683
-8.12481
-7.82938
-7.31736
-5.22411
-1.83024
1.68381
4.45918
4.61275
2.4637
-0.498768
-1.44219
-0.997454
-0.475181
-0.889905
-2.07247
-3.77916
-5.52353
-5.96858
-3.67476
-0.120544
4.09529
2.99258
-2.95132
-7.24545
-9.18596
-9.43918
-8.68873
-7.03592
-4.11404
-0.475755
2.72331
5.13412
5.68707
3.88322
1.15941
-0.0944207
-0.0585594
0.210776
-0.335756
-1.48024
-3.07471
-4.63656
-4.81477
-2.50416
0.475659
4.78892
3.73917
-1.71729
-6.0248
-8.08571
-8.05083
-6.41512
-4.0646
-1.19237
1.52419
3.67049
5.62948
6.72957
5.52246
3.00022
1.42668
0.972602
0.791259
-0.0702992
-1.34308
-2.93777
-4.37465
-3.96396
-1.41771
0.965691
5.34257
4.56914
0.290735
-3.43638
-5.02387
-4.25588
-2.03686
0.481007
2.82689
4.00856
4.74145
6.04369
7.29895
6.9582
4.93117
3.20728
2.29692
1.58569
0.295462
-1.15996
-2.59647
-3.8952
-3.18039
-0.553258
1.28619
5.71872
5.29541
2.43869
-0.472632
-1.8577
-0.676226
2.09341
4.86183
6.73452
6.99073
6.49297
6.55879
7.2591
7.5325
6.217
4.78241
3.7992
2.7934
1.30324
-0.23491
-1.40696
-2.61903
-2.48672
-0.270993
1.16851
5.89999
5.66342
3.67415
1.33774
0.0922868
1.39171
4.55088
7.74899
9.59236
9.74396
8.73556
7.76037
7.46023
7.59066
6.6961
5.60137
4.67666
3.58695
2.12332
0.359767
-1.04031
-2.25627
-2.78801
-1.30128
0.588713
1.47047
0.916475
-0.368928
-0.55026
1.53416
4.53488
6.83405
7.83821
7.71734
7.09511
6.49329
5.79994
4.96592
4.10552
3.45185
3.3029
3.89846
4.32938
3.15113
2.11155
1.40948
-0.194802
-1.61679
1.34344
2.34925
1.44892
0.91022
-0.983085
-1.51667
0.341487
3.25831
5.78877
7.07845
7.13495
6.33333
5.36518
4.44185
3.54595
2.6311
1.74293
1.58255
2.38295
2.95959
2.17201
0.99449
0.214576
-1.14108
-2.47902
0.146476
1.18198
1.41811
0.983264
-1.41316
-2.62333
-1.36216
1.36354
3.89447
4.94279
5.13487
4.36633
3.09321
1.88554
1.17094
0.792858
0.590581
0.842608
1.76792
2.21283
1.32298
0.0797369
-0.638864
-1.62694
-2.41492
-0.169106
0.324506
1.33593
1.09041
-1.65041
-3.63504
-2.98427
-0.506643
1.94445
2.93061
3.30003
2.74953
1.72804
0.434711
-0.425575
-0.555139
-0.177068
0.657708
2.25521
2.66561
0.588314
-1.58964
-2.21637
-2.39323
-2.45422
-0.954812
-0.571055
1.22649
1.21463
-1.82614
-4.39933
-4.16284
-1.9955
0.369663
1.55636
2.14688
1.99939
1.46067
-0.120135
-1.37463
-1.2458
-0.160093
1.37144
3.49449
3.84356
0.0711824
-3.46164
-3.85423
-2.79471
-2.30218
-1.61992
-0.824007
1.12041
1.37879
-2.13733
-5.07565
-5.13412
-3.29392
-1.17901
0.186606
1.0075
1.50684
1.5108
-0.347086
-2.1087
-1.72985
0.23314
2.77217
5.09398
4.87205
-0.786313
-5.6777
-5.74736
-3.32174
-2.12321
-1.79573
-0.668896
1.02695
1.46925
-2.63328
-5.62459
-5.88395
-4.40424
-2.63334
-1.05503
0.031844
1.32077
1.94104
-0.277707
-2.66917
-2.08035
0.687903
3.93241
6.36902
5.07053
-2.32336
-8.38112
-8.13399
-4.36491
-2.30634
-1.80809
-0.521501
0.945414
1.45069
-3.07973
-6.00942
-6.38463
-5.20055
-3.68632
-1.97121
-0.394624
1.43615
2.33347
-0.29831
-3.54276
-2.81001
0.5482
3.93418
6.19214
3.60329
-5.21238
-11.7482
-10.9188
-6.05765
-3.13395
-2.06818
-0.650819
0.882889
1.32344
-3.26396
-6.15099
-6.58373
-5.53082
-4.02677
-2.24085
-0.278635
1.52284
2.17593
-1.02827
-4.86896
-4.44203
-0.792867
2.70055
4.47275
0.794341
-9.20859
-16.1837
-14.6768
-8.59076
-4.53207
-2.80202
-0.897898
0.85872
1.18614
-3.2935
-6.04741
-6.52248
-5.52589
-3.9121
-2.02067
0.0785204
1.29349
1.33406
-2.59206
-6.89332
-6.85561
-3.25581
2.28629e-05
1.27582
-2.90132
-13.6142
-21.4942
-19.8758
-12.7097
-6.95525
-4.1552
-1.31424
0.860112
1.0844
-3.24501
-5.72592
-6.35582
-5.49323
-3.79437
-1.7545
0.395564
0.888556
0.0795278
-4.36779
-8.99209
-9.31755
-5.94231
-3.10779
-2.06503
-5.58006
-16.3138
-25.4339
-24.7145
-17.4462
-10.1693
-5.84756
-1.89827
0.891398
0.979682
-3.1467
-5.31145
-6.21679
-5.74999
-4.11953
-1.85908
0.334786
0.330786
-1.22766
-5.86178
-10.6387
-11.521
-8.50678
-6.03082
-4.61031
-6.48886
-15.759
-25.5938
-26.3152
-20.0228
-12.4915
-7.37169
-2.53543
0.955027
1.03384
-2.8985
-5.04488
-6.28749
-6.33856
-4.88488
-2.36723
-0.0786196
-0.164615
-2.01706
-6.50595
-11.4409
-12.9956
-10.7147
-8.42971
-6.21186
-6.47785
-13.1379
-22.2627
-24.2236
-19.6832
-13.2769
-8.50715
-3.03781
1.03823
0.991961
-2.70398
-4.79049
-6.36418
-6.84278
-5.44538
-2.7508
-0.185316
-0.0807227
-1.92464
-5.92017
-10.8714
-13.0375
-11.4803
-9.26934
-6.55994
-5.94529
-10.5389
-18.1487
-20.1012
-17.2806
-12.9324
-8.74041
-3.1968
1.16372
0.949814
-2.73858
-4.2926
-5.72002
-6.45603
-5.10637
-2.50834
0.124846
0.506431
-1.0936
-4.17851
-8.61717
-11.2157
-10.5856
-8.79258
-6.43348
-5.32507
-8.18426
-14.3252
-16.1652
-14.3508
-11.8944
-8.34966
-3.05514
1.33875
0.997883
-3.13604
-4.163
-4.56873
-5.15968
-4.22864
-2.39708
-0.0186004
0.92113
-0.0745045
-1.88403
-5.17112
-7.84802
-8.30292
-7.56551
-6.34504
-5.24973
-6.78239
-11.0663
-12.6985
-11.5363
-10.4465
-7.73142
-2.91189
1.54942
0.960039
-3.78094
-4.83072
-4.41117
-4.48127
-4.2898
-3.58592
-1.46659
0.432889
0.561945
0.267853
-1.39074
-3.72774
-5.31199
-5.924
-5.87134
-5.45527
-6.41623
-8.92863
-9.80502
-8.8832
-8.98653
-7.01795
-2.43616
1.82963
0.99132
-4.54036
-6.27703
-5.91091
-5.83009
-6.39087
-6.65978
-4.44681
-1.04033
0.665795
1.67133
1.38461
-0.460992
-2.84984
-4.38984
-4.83408
-4.93646
-5.71315
-7.23124
-7.66523
-6.99803
-7.87135
-6.26751
-1.85446
2.22861
1.12674
-5.32598
-8.06373
-8.42789
-8.91955
-10.2466
-10.6919
-7.75493
-2.60173
0.860216
2.63576
2.845
1.40619
-1.07953
-2.90066
-3.44102
-3.6127
-4.28681
-5.56913
-6.23833
-5.91383
-6.90364
-5.39441
-1.29269
2.75957
1.38372
-5.87797
-9.66186
-11.1036
-12.689
-14.1284
-13.3095
-9.15916
-2.75641
2.07008
4.12386
4.00405
2.64928
0.363635
-1.38813
-2.08251
-2.33934
-2.97808
-4.17817
-5.29392
-5.34136
-5.96713
-4.42994
-0.822419
3.39206
1.87032
-5.82536
-10.5719
-13.0905
-15.1651
-15.3787
-12.7671
-7.65382
-0.997613
4.26845
6.3291
5.60701
3.92862
1.68455
-0.118738
-1.07778
-1.59891
-2.25571
-3.18583
-4.41104
-4.97287
-5.13796
-3.44641
-0.426354
4.0739
2.76391
-4.79855
-10.3559
-13.4049
-14.5708
-12.9337
-8.82909
-3.61318
1.87038
6.52251
8.64847
7.62878
5.4049
2.92028
0.900105
-0.330389
-1.23472
-2.03928
-2.72107
-3.75654
-4.89681
-4.70753
-2.53221
0.0731808
4.74968
3.9449
-2.8345
-8.68017
-11.2372
-10.5502
-7.21964
-2.71401
1.45198
4.63145
7.94991
10.1894
9.45468
7.13229
4.34704
1.94609
0.348655
-0.935188
-2.06135
-2.72285
-3.53995
-4.93327
-4.44648
-1.45124
0.75997
5.32638
4.91975
-0.532539
-5.68644
-7.2984
-5.40061
-1.26117
3.06173
5.98449
7.27871
8.69749
10.4257
10.2261
8.52556
6.0352
3.39597
1.37218
-0.28457
-1.75142
-2.60901
-3.44893
-4.68482
-4.13099
-0.719124
1.3228
5.65087
5.354
1.09556
-2.78924
-3.65576
-1.73146
2.35152
6.73549
9.38154
10.0498
9.90909
10.1858
9.92828
8.95093
7.11019
4.79413
2.74703
0.987856
-0.601907
-1.78977
-2.99618
-4.20586
-4.11505
-1.58543
0.618413
0.452892
0.186665
-1.33804
-2.1748
-1.51768
0.320527
2.55203
4.01613
4.18122
3.73903
3.78247
3.94925
3.77762
3.22584
3.04999
4.29489
6.34062
6.85617
5.02526
3.71732
3.07036
1.141
-1.38421
-1.2248
-2.12798
0.418377
0.172021
-1.99028
-3.33973
-2.89302
-1.01222
1.45568
3.01973
3.30186
2.50354
1.99116
1.81976
1.71722
1.30076
1.07151
2.16964
4.33009
5.45864
3.78262
2.18618
1.49991
-0.119722
-2.74797
-1.95901
-2.94157
0.383742
0.198991
-2.69794
-4.77978
-4.41537
-2.33288
0.0328818
1.20152
1.67512
0.700172
-0.368674
-1.012
-1.04348
-1.0766
-0.567995
1.12252
3.34993
3.99022
1.77819
0.0490676
-0.433171
-1.34391
-3.49883
-2.34885
-4.10844
0.323521
0.303503
-3.23568
-5.80037
-5.47051
-3.4899
-1.75082
-0.710214
0.323597
-0.245886
-1.44076
-2.76884
-3.33928
-2.94667
-1.54869
1.08239
3.81608
3.41597
-0.733579
-3.28459
-3.50798
-3.3991
-4.43196
-2.77413
-3.14622
0.243153
0.421028
-3.75956
-6.36909
-6.07565
-4.43225
-3.1773
-1.96846
-0.380885
-0.49441
-1.66699
-3.50953
-4.74362
-3.92073
-1.27534
2.08837
5.15533
3.11949
-3.70896
-7.39922
-6.91514
-5.22175
-5.2842
-3.83443
-2.10932
0.136467
0.298161
-4.32448
-6.73377
-6.58482
-5.14362
-4.31937
-3.02355
-1.22499
-0.860394
-1.83337
-4.19227
-5.88266
-4.70334
-0.689116
3.31967
6.076
2.07606
-7.21558
-11.6951
-10.1636
-6.53029
-5.56009
-4.75927
-1.91933
0.0132769
-0.172061
-4.784
-7.02495
-7.09948
-5.73215
-5.0709
-3.90041
-2.07868
-1.28136
-1.91669
-4.8211
-7.23673
-5.75137
-0.794046
3.58952
5.62658
-0.296445
-11.4088
-16.2399
-13.4952
-7.84608
-5.4988
-5.07953
-1.90765
-0.0889671
-0.722916
-4.99296
-7.29221
-7.40453
-6.05964
-5.27309
-4.34919
-2.82464
-1.7911
-2.03365
-5.55006
-8.99659
-7.34259
-1.93035
2.1182
3.71564
-3.38981
-16.017
-21.0927
-16.9421
-9.60466
-5.87109
-5.31686
-1.99072
-0.138386
-1.04574
-4.90061
-7.35221
-7.23839
-5.84496
-4.79858
-4.06286
-3.18287
-2.35104
-2.44892
-6.36745
-10.6776
-9.13275
-3.96345
-0.765244
0.463281
-6.06106
-19.7594
-25.9874
-20.9226
-11.9481
-6.95733
-5.54849
-2.19546
-0.108359
-1.01728
-4.6929
-6.8674
-6.63006
-5.17081
-3.8091
-3.03921
-2.71602
-2.56173
-3.07181
-7.16081
-11.9661
-10.7865
-6.54245
-4.2943
-3.25866
-7.96953
-21.3309
-29.2725
-24.7929
-14.8357
-8.42823
-5.94483
-2.48558
-0.00392625
-0.639941
-4.35682
-6.00248
-5.68358
-4.36075
-2.7282
-1.75274
-1.60312
-2.21943
-3.71852
-7.88804
-12.7784
-12.7377
-10.135
-8.50929
-6.11593
-7.99571
-19.6692
-29.1183
-26.3437
-17.0568
-10.0027
-6.85147
-2.88288
0.163156
-0.0497646
-3.74925
-5.00423
-4.60127
-3.6759
-2.11366
-0.985532
-0.733681
-1.88794
-4.51539
-8.59933
-13.2987
-14.5741
-14.029
-13.1821
-9.65279
-7.75935
-15.664
-25.4505
-24.9219
-17.4929
-11.1483
-7.80909
-3.26852
0.365992
0.56652
-3.01818
-4.14947
-3.94839
-3.44083
-2.12547
-1.15283
-0.923289
-2.25179
-5.1268
-8.84361
-13.4496
-15.4495
-15.9513
-15.6823
-12.2961
-8.75113
-12.3744
-20.5122
-21.4185
-16.0874
-11.4047
-8.44345
-3.51431
0.547374
1.0516
-2.28819
-3.52812
-3.87253
-3.72472
-2.54666
-1.77012
-1.64624
-2.6113
-4.73585
-7.68734
-12.0699
-14.4901
-15.3846
-15.1314
-12.4288
-9.51248
-10.8228
-16.6869
-17.5198
-13.7591
-11.0659
-8.64129
-3.51373
0.659562
1.17925
-2.24552
-3.19471
-3.79225
-4.04461
-3.06409
-2.4062
-2.13446
-2.16923
-3.12596
-4.98939
-8.81551
-11.5673
-13.0566
-12.7768
-11.3652
-9.48214
-10.1401
-14.0707
-14.6315
-11.8019
-10.5524
-8.41957
-3.26498
0.73572
1.19002
-2.82092
-3.71626
-4.01906
-4.22806
-3.80182
-3.39369
-2.86696
-1.80293
-1.30842
-1.72078
-4.3653
-7.13583
-8.86825
-9.446
-10.1795
-9.0869
-9.66487
-12.1304
-12.4938
-10.3183
-9.81083
-7.8885
-2.92793
0.84569
1.06242
-3.53776
-4.85402
-4.95422
-5.43305
-5.76037
-5.57401
-4.52089
-2.26288
-0.222341
1.19849
0.36328
-1.9627
-4.00633
-5.98018
-8.54968
-8.60837
-8.91182
-10.1266
-10.4067
-8.51801
-8.43223
-7.33228
-2.48208
0.976372
0.660394
-4.60889
-6.58453
-7.37113
-8.70309
-9.59642
-9.16844
-7.05345
-3.552
-0.19846
2.69501
3.57055
2.00259
-0.604732
-3.47286
-6.42131
-7.37658
-7.66207
-8.11503
-8.37388
-7.00444
-7.24387
-6.72158
-1.90807
1.21782
0.26605
-5.93285
-9.14309
-11.4211
-13.6573
-14.4237
-12.9118
-9.41384
-4.68425
-0.55657
2.8311
4.76118
3.82734
1.00577
-2.05313
-4.17899
-5.35654
-5.82951
-6.32558
-6.96283
-6.48508
-6.66842
-6.00486
-1.32671
1.69667
0.191253
-6.99257
-11.6802
-15.5549
-18.4659
-18.5299
-15.2576
-10.0858
-4.17592
0.241197
3.20644
5.19303
4.56238
2.08594
-0.705207
-2.40225
-3.49179
-4.17808
-4.92915
-6.18817
-6.53834
-6.28492
-5.20941
-0.992214
2.40639
0.588634
-7.33247
-13.2195
-17.9885
-20.6692
-19.8255
-14.9498
-8.10116
-1.51815
2.69291
4.96765
6.04981
5.35189
3.16169
0.593907
-1.22132
-2.29233
-3.00177
-3.83162
-5.43093
-6.33459
-5.82671
-4.38924
-0.68088
3.20815
1.63188
-6.63345
-13.2198
-17.833
-19.3413
-17.2242
-11.5116
-4.20429
2.23033
6.11195
7.70309
7.64486
6.30035
4.11709
1.61013
-0.416473
-1.67234
-2.36023
-3.08091
-4.60676
-5.87754
-5.54267
-3.73258
-0.230114
4.02095
3.16258
-4.9069
-11.8874
-16.0294
-16.2353
-12.631
-6.53467
-0.350296
5.14616
8.97629
10.4177
9.71749
7.64085
5.12753
2.55521
0.364886
-1.19026
-2.04798
-2.62201
-3.98067
-5.79962
-5.83859
-3.24536
0.372389
4.78962
4.56714
-2.61039
-9.59098
-13.5496
-12.7648
-7.53499
-1.26566
3.31096
6.88895
9.92564
11.6408
11.2781
9.21627
6.33214
3.4774
1.04375
-0.903579
-2.16534
-2.74088
-4.03873
-6.34315
-6.33525
-2.86765
0.722141
5.28214
5.15004
-0.912401
-6.91018
-9.71608
-8.00058
-2.81837
2.95698
6.77769
8.85292
10.1853
11.4933
11.6022
10.0643
7.2121
4.24077
1.82079
-0.0231568
-1.1817
-1.7513
-3.11142
-5.51172
-5.62222
-3.00089
0.373956
-0.157175
-0.109358
-1.73591
-3.01822
-3.10852
-2.06349
-0.679056
0.123185
0.630055
2.08098
3.87808
4.93701
5.67137
6.29227
7.33
8.9006
10.3285
9.51881
6.97753
5.24372
3.73707
1.7472
-0.221509
-1.59594
0.120525
-0.22625
-0.276327
-2.46946
-4.18533
-4.26504
-2.83443
-1.31696
-0.7854
-0.544604
0.627836
2.26384
3.73484
4.64597
4.9619
5.80853
7.24039
8.49856
7.73136
4.93643
3.02364
1.9402
0.461543
-1.89182
-2.72258
-0.456742
-0.29108
-0.340653
-3.37889
-5.41419
-4.97919
-3.05827
-1.9256
-1.5348
-0.849636
-0.0229245
0.969678
1.90882
2.70455
3.1838
4.67683
6.39453
7.09666
5.24076
1.86579
0.278749
-0.0298034
-0.791905
-3.19223
-3.51561
-1.99077
-0.368904
-0.296974
-4.0692
-5.95124
-5.0508
-3.42085
-3.59413
-3.60224
-2.11381
-0.939152
-0.460864
-0.461973
0.363253
1.62976
3.81242
6.03962
6.53628
3.0787
-1.77342
-3.53533
-3.20637
-3.18516
-5.18572
-4.86983
-3.10783
-0.489312
-0.513776
-4.75021
-6.14157
-5.02926
-4.12145
-5.0244
-5.20739
-3.35972
-1.56672
-1.11307
-1.91723
-1.49028
0.559261
3.62189
6.11807
6.0367
0.813904
-5.75691
-8.16476
-7.15509
-5.93973
-7.10828
-6.45621
-3.50816
-0.674953
-1.20841
-5.3871
-6.2678
-5.21466
-5.09074
-6.06376
-6.21171
-4.72739
-2.74521
-2.04485
-3.1924
-3.40484
-0.526353
3.65232
6.03652
4.98517
-2.00504
-10.0978
-13.0214
-11.1038
-8.19165
-8.5356
-8.00074
-3.87068
-0.873835
-2.14338
-5.61892
-6.2974
-5.57187
-5.93587
-7.0315
-7.28016
-6.40545
-4.61205
-3.65359
-5.07011
-5.9242
-2.04068
3.07382
5.18563
3.17116
-5.18307
-14.5673
-17.5637
-14.459
-9.68504
-9.10695
-9.20585
-4.0634
-1.01331
-2.834
-5.45597
-6.14717
-5.60813
-6.21737
-7.30516
-7.91621
-7.8496
-6.57049
-5.50534
-7.25448
-8.74881
-4.0203
1.47951
2.78028
0.552681
-8.28403
-18.6386
-21.7479
-17.2925
-10.8235
-9.07664
-9.71541
-4.04657
-1.06906
-3.0384
-5.3984
-5.93322
-5.27296
-5.80517
-6.66152
-7.37637
-7.93679
-7.58793
-6.83603
-8.77804
-10.878
-6.25088
-1.07905
-1.07037
-3.07615
-10.6693
-21.489
-25.4263
-19.9706
-11.9809
-9.11044
-9.49163
-3.93407
-1.04437
-3.07637
-5.79307
-5.97485
-5.00045
-5.06685
-5.53297
-6.20825
-7.01952
-7.40968
-7.37503
-9.27276
-11.6072
-8.83449
-5.53217
-5.74024
-7.18888
-12.2903
-22.3473
-26.9929
-21.5471
-12.7936
-9.21797
-8.6946
-3.90143
-0.94703
-3.01736
-6.28711
-6.18146
-5.03264
-4.40802
-4.15376
-4.92536
-5.95767
-6.51891
-7.18385
-9.17123
-11.4043
-11.2792
-10.723
-11.1497
-11.5969
-13.4741
-20.7086
-25.2094
-20.7714
-12.5076
-9.14519
-8.19257
-3.90308
-0.76155
-2.82262
-6.62198
-6.24616
-4.91347
-4.07729
-3.34379
-3.92039
-4.85419
-5.43
-6.80945
-9.08664
-11.2491
-12.3383
-13.7842
-15.5653
-15.173
-13.8396
-17.307
-21.3153
-18.8879
-12.1269
-9.16393
-8.20952
-3.86228
-0.497668
-2.40039
-6.44357
-5.96755
-4.64826
-3.88282
-2.97866
-3.2352
-3.84729
-4.55487
-6.49018
-8.96238
-10.8134
-12.6115
-15.2203
-16.4833
-16.2895
-14.0191
-14.3768
-17.1225
-16.5657
-11.6265
-8.95675
-8.22628
-3.69712
-0.311246
-1.85405
-5.84205
-5.227
-4.34682
-3.92914
-3.09169
-3.02745
-3.31049
-3.84957
-5.63941
-7.77093
-9.33345
-11.9336
-15.8393
-15.7664
-14.4582
-13.2094
-12.0807
-13.4786
-13.7838
-10.4575
-8.49529
-7.91582
-3.38954
-0.310481
-1.33039
-5.32633
-4.63395
-4.28872
-4.20827
-3.40351
-3.20401
-3.07779
-2.81497
-3.77111
-5.39001
-6.94449
-9.77793
-15.0743
-14.3167
-11.1522
-11.6228
-10.8137
-10.968
-11.2878
-9.11865
-7.65675
-7.10815
-3.00699
-0.320386
-0.739674
-5.07072
-4.99428
-4.85012
-4.78244
-3.93142
-3.64409
-3.17209
-1.80025
-1.2317
-2.00498
-3.63959
-6.33644
-11.2145
-10.9624
-8.62035
-9.85799
-9.86596
-9.35809
-9.39163
-8.01304
-6.70286
-6.66441
-2.62051
-0.230596
-0.373667
-5.4295
-6.20266
-6.04512
-6.11999
-5.47502
-4.9082
-4.05733
-1.71124
0.818392
1.80547
0.680832
-1.77316
-5.36838
-7.43428
-7.8179
-7.36974
-7.95032
-7.99187
-8.11398
-6.88772
-6.08716
-6.69109
-2.14169
0.0550133
-0.488906
-6.45058
-7.82848
-8.13362
-8.98639
-8.75734
-7.30646
-5.5852
-2.67765
1.14225
4.04482
4.06727
1.97427
-0.834938
-4.7302
-6.71073
-6.00733
-5.93211
-6.73334
-7.28917
-6.04448
-5.79044
-6.70195
-1.66682
0.793729
-0.528871
-7.37482
-9.56273
-11.118
-12.7866
-12.7696
-10.1251
-6.91975
-3.45932
0.628295
4.38435
5.51584
3.81663
1.15029
-1.74793
-4.28022
-4.94137
-4.99496
-6.02418
-6.91807
-6.05582
-5.69642
-6.35799
-1.38578
1.94527
0.0129908
-7.57314
-11.1432
-14.491
-16.8816
-16.2174
-12.2986
-7.44777
-3.06369
0.999155
4.65601
6.37528
5.0912
2.44642
0.150907
-1.75455
-3.27796
-4.217
-5.23891
-6.52868
-6.39181
-5.63505
-5.83872
-1.17416
3.30101
1.16286
-7.03964
-12.2664
-17.0778
-19.6717
-18.1387
-12.8687
-6.53707
-1.36375
2.62952
5.90392
7.50303
6.32897
3.69219
1.28549
-0.390241
-1.77405
-2.91292
-4.10897
-5.885
-6.4441
-5.43314
-5.25848
-0.92114
4.25532
2.64325
-5.95701
-12.2614
-17.0823
-19.1245
-17.2264
-11.2299
-4.24508
1.25934
5.12292
7.8921
9.0043
7.67287
5.03157
2.34112
0.362101
-0.870228
-1.74929
-2.9439
-4.95528
-6.02865
-5.12475
-4.63413
-0.569509
4.71066
4.11972
-4.43259
-11.3209
-15.9167
-17.3845
-14.8536
-8.27823
-1.10243
4.36021
7.90843
10.1406
10.6327
9.03891
6.39166
3.48896
1.09494
-0.334422
-1.05651
-1.92656
-3.76254
-5.41505
-5.34521
-4.96733
-0.819438
5.13652
5.58986
-2.38589
-9.82921
-14.9324
-16.0491
-12.0455
-4.7547
1.87001
6.76612
9.89642
12.1873
12.4601
10.3256
7.47487
4.64707
2.10107
0.237528
-0.82632
-1.56344
-3.21396
-5.70042
-6.39092
-4.8639
-0.64584
5.62322
6.32956
-0.60821
-7.60504
-12.1181
-12.2175
-7.46664
-0.877926
4.5778
8.41789
10.8198
12.9054
13.3877
11.1331
7.79419
5.06103
2.85055
0.987878
-0.203468
-0.909966
-2.59349
-5.42323
-6.34051
-4.69797
-0.47645
-0.388227
-0.137737
-1.52934
-2.85362
-3.15307
-2.78137
-2.39365
-1.98297
0.077969
3.30727
5.63006
7.39901
8.87734
9.67749
10.7895
10.6028
11.0341
8.99801
6.83707
4.94974
1.98356
0.290839
-0.340163
-1.40745
0.726588
-0.471139
-0.288104
-1.92775
-3.36105
-3.62348
-3.05125
-2.65854
-2.29695
-0.842399
2.06314
5.3712
8.12215
9.60994
10.0365
10.7456
9.72409
8.46584
5.81009
3.05359
1.3306
0.284855
0.327991
-1.05566
-4.40406
-2.09944
-0.528088
-0.298355
-2.35965
-3.72941
-3.51176
-2.6097
-2.41523
-1.87259
-0.22776
2.69613
6.01879
8.76315
10.1455
10.4031
11.395
10.1461
7.51666
3.87482
0.838278
-0.411598
-0.272997
0.330221
-2.0855
-6.31891
-3.63494
-0.579441
-0.187758
-2.77149
-3.82922
-3.13737
-2.11462
-2.39525
-2.25962
-0.368524
2.43275
5.23999
7.39898
9.11271
10.2432
11.5632
10.0841
6.92403
1.92492
-2.0068
-2.97268
-2.11265
-1.22632
-3.73809
-7.51897
-5.34568
-0.681787
-0.417806
-3.28444
-3.90065
-3.18922
-2.88103
-3.4948
-3.40543
-1.60832
1.3968
4.36606
6.01114
7.62242
9.66859
11.2366
9.39781
5.63346
-0.59947
-5.56604
-6.52435
-4.85133
-3.31997
-4.94541
-8.2882
-6.60013
-0.856794
-1.1295
-3.74523
-3.95087
-3.51847
-4.10688
-4.92209
-4.92201
-3.60182
-0.707539
2.33106
3.83661
5.7024
8.59098
10.369
8.07455
3.5769
-3.53055
-9.4596
-10.5202
-7.90745
-5.23394
-6.06102
-9.04582
-6.6387
-1.01492
-1.90177
-3.63414
-3.63756
-3.24868
-4.61836
-5.86338
-6.36495
-5.76954
-3.57663
-0.821222
0.655912
2.85558
6.96968
9.05038
6.28317
1.22544
-6.47874
-13.1479
-14.1989
-10.6756
-6.80327
-7.34134
-9.78416
-6.15463
-1.0585
-2.1484
-3.074
-3.19001
-2.80113
-4.42049
-6.18957
-7.19607
-7.41357
-6.35989
-4.12803
-2.59903
-0.460141
4.43699
6.74825
3.78407
-1.54436
-9.55741
-16.3017
-17.2566
-12.9306
-8.10222
-8.25349
-10.3339
-5.69568
-1.02025
-2.05162
-3.06586
-3.01986
-2.4605
-3.82775
-6.19247
-7.42248
-8.03376
-8.02986
-6.58738
-5.21203
-3.58619
1.17072
3.24272
0.204365
-4.93148
-12.5915
-18.7055
-19.4483
-14.4632
-8.95878
-8.43265
-10.4554
-5.34316
-1.00482
-2.08892
-3.59305
-3.3082
-2.51129
-3.07323
-5.80396
-7.40734
-8.19582
-8.8204
-8.08008
-6.73582
-5.94642
-2.54791
-1.66473
-4.25016
-8.72113
-14.9441
-19.8156
-20.186
-15.2433
-9.64748
-8.03928
-9.68625
-4.94913
-0.992108
-2.15318
-4.51166
-3.94779
-2.96351
-2.67833
-4.90136
-7.01654
-8.10722