/*--------------------------------*- C++ -*----------------------------------*\
  =========                 |
  \\      /  F ield         | OpenFOAM: The Open Source CFD Toolbox
   \\    /   O peration     | Website:  https://openfoam.org
    \\  /    A nd           | Version:  11
     \\/     M anipulation  |
\*---------------------------------------------------------------------------*/
FoamFile
{
    format      ascii;
    class       surfaceScalarField;
    location    "10";
    object      phi;
}
// * * * * * * * * * * * * * * * * * * * * * * * * * * * * * * * * * * * * * //

dimensions      [0 3 -1 0 0 0 0];

internalField   nonuniform List<scalar> 
49858
(
2997.85
-740.432
1861.15
5959.48
-2023.1
3323.79
-711.621
3457.77
4732.73
-9416.87
5506.98
4033.55
-12483
1451.98
2270.3
-9803.07
-2381.68
393.2
-4653.08
-4962.71
760.701
502.364
-5611.03
1349.6
4689.47
-5995.43
2492.74
7927.3
-6252.8
3443.14
10393.1
-6033.62
3868.87
12094
-5094.22
3578.5
13110.6
-3731.4
2905.23
13218
-2057.06
2151.59
12017.4
-113.538
1546.65
9831
1127.57
1330.38
6950.1
1307.72
2101.05
4437.17
1199.03
1988.7
3724.56
1678.74
-220.887
4546.49
2053.21
-2235.25
5878.26
2645.51
-3455.98
7146.61
3202.18
-4144.35
8485.77
3187.27
-4323.25
9529.49
2834.29
-3779.77
3198.92
-2066.14
1740.87
-356.584
1734.56
741.054
-1007.81
3214.5
-4301.69
5389.77
4175.99
-9650.56
8839.37
2743.48
-9865.45
6217.54
-4020.81
-6317
3058.07
-8461.97
-1740.88
385.297
-9282.68
3020.08
-598.701
-9178.96
7520.58
-1709.27
-8378.6
11380.5
-3121.67
-6707.67
14579.6
-4491.24
-4558.32
17025.2
-5079.1
-2317.89
18494.8
-4195.59
-851.235
18575.1
-1654.88
-271.74
17139.3
1512.77
20.2635
15010.5
3066
452.323
12866
2497.27
1387.36
11463.7
1292.56
1892.12
11238.9
1258.05
1273.81
12009.5
1810.99
27.5188
13060.7
2947.75
-909.104
13983.1
3936.86
-1391.63
14954.7
3896.91
-1526.03
16010.7
3123.31
-1270.54
3887.02
-199.246
1429.93
43.2833
2101.15
339.849
-247.33
3066.91
-4178.34
7015.92
3819.25
-8303.15
11839.7
1729.46
-7408.82
12586.5
-6805.86
-3846.33
11334.8
-11376.9
-92.9073
9448.88
-12289.2
3743.74
8171.42
-12136.6
7681.5
6186.23
-11537.7
11118.4
4238.99
-10632.2
14155
2481.93
-9934.79
16658.2
1377.44
-8932.76
18054.8
1651.32
-7202.09
18165.7
3330.72
-5024.72
17282.9
4938.29
-2426.09
15724.5
4845.91
-40.5299
14083
2529.04
1894.83
13221.3
-565.221
3134.87
13481.2
-1510.75
2859.7
14750.2
-1425.98
2269.49
16070.2
189.519
1607.78
16844.2
2246.93
1023.83
17471
2755.68
597.877
18598.7
1489.21
552.766
2572.69
1084.61
1406.13
332.956
2110.4
149.072
919.69
2777.95
-3583.21
8830.55
2827.87
-7206.69
15027.6
1005.22
-6051.5
18154.9
-6298.84
-2959.51
18544.8
-9917.36
0.889749
17497.5
-10640.9
3223.14
15785.3
-10552.5
6913.78
13285.3
-10648.7
10444.5
11261.3
-10518.9
13807.7
9776.07
-10684
16670.4
9311.74
-10835.8
18268.2
9804.2
-9750.53
18591.2
10129.8
-7037.78
17595.2
9111.34
-3024.86
15646.6
6787.06
262.085
13678.7
2511.4
2445.47
12582.2
-1349.49
2521.82
12353.8
-3035.23
2318.26
13147.6
-4259.49
2524.27
14403.5
-3357.87
2651.77
14841.1
-395.856
2467.5
14045.8
1630.76
2069
14713.6
-1323.09
2195.85
-1432.09
2599.28
1409.78
555.412
2236.66
53.0363
1365.03
2996.55
-3212.57
10750.9
2124.14
-6426.16
17926.7
812.064
-5440.19
22309.7
-4759.3
-2708.88
23767.4
-7611.9
135.674
23492
-8531.39
3289.12
21801.8
-8953.33
6734.36
19578.4
-9623.8
10174.9
17785.3
-9923.36
13614.6
16338.4
-10004.8
16650.4
16348.2
-10088.6
18547.7
17191.1
-9274.99
19079.9
16260.3
-6605.83
17820
13045.9
-2547.04
15444.1
8592.05
797.129
13325.6
2308.14
2723.68
11202.4
-681.403
1877.62
9177.49
-2758.12
2098.49
7804.66
-5790.66
3096.86
7109.52
-5929.36
3412.73
5686.9
-1910.67
3022.66
4155.24
938.403
2300.55
5725.66
-5703.17
2824.32
-7273.93
3163.31
1308.63
671.24
2322.5
-223.478
1891.97
3140.08
-3077.74
12720.9
1628.94
-5855.89
20305.9
894.641
-4999.81
25188.7
-3330.5
-2431.31
27252.9
-5689.82
442.029
27652.2
-6728.91
3539.94
26460.2
-7574.98
6663.5
24889.3
-8372.77
9796.41
23537.1
-8899.68
13276.2
21742.2
-8932.89
16553.7
21668.8
-8639.95
18675.9
22644.9
-7565.49
19099
21010.6
-5080.44
17716
16364.3
-1707.86
15227.4
10066.7
1337.83
12184.1
3619.95
2411.02
8499.97
1711.61
2018.66
7458.72
-4357.79
3083.43
7127.93
-9749.53
4628.3
5734.46
-9150.76
4893.99
4826.05
-4940.71
4165.54
5460.31
-3318.12
3727.5
5916.4
-9459.94
3322.38
-9981.5
2258.89
1284.32
808.492
2361.77
-590.496
2111.47
3287.7
-3003.06
14301.2
1461.28
-5424.01
21938.9
1224.46
-4760.23
27008.8
-2121.7
-2368.2
29312.4
-4125.62
445.824
30033.3
-4902.52
3381.03
29604.6
-5886.28
6228.87
28926.3
-6765.74
9074.13
28212.2
-7456.74
12663.9
26087
-7901.31
16194.9
25609.8
-7438.39
18333.5
26285.4
-5719.88
18505.2
24272.4
-3310.98
17365.4
18328
-649.435
14623.5
11260.7
1929.66
10113.8
5933.05
2650.31
7686.21
1769.12
2712.84
9231.19
-9230.75
3435.49
9897.04
-15048.1
4663.42
8988.67
-13706.5
5405
7976.55
-9385.48
5395.88
7547.45
-7801.88
4866.09
5794.35
-11159.8
3414.59
-10889.2
2383.58
1449.13
733.049
2294.12
-511.022
2313.85
3528.22
-2702.19
15516.1
1598.14
-4854.48
23038.1
1492.93
-4409.56
28114.8
-1173.97
-2208.64
30407.3
-2930.91
320.312
31116.6
-3294.61
2913.3
31266.2
-4034.62
5559.48
31518
-5123.97
8227.48
31565.9
-5973.73
11873.1
29503.4
-7042.39
15455.5
28600.3
-6543.54
17421.2
28623.1
-4223.72
17498.6
26059
-1684.92
16755.7
18989.4
415.31
13137.6
12797
2553.74
7792.26
8461.63
3580.33
7795.43
-1310.97
3408.34
10413.5
-13863.7
2162.9
11460.6
-19609.7
3569.09
10789.2
-18336.3
5341.34
9656.97
-14290.1
6060.6
8315.17
-12062.4
5613.04
7305.75
-14193.9
4049.89
-12639.7
1894.73
1812
525.831
2127.43
-130.077
1932.3
3686.86
-2297.42
16367.3
1873.48
-4217.41
23737.7
1599.01
-3983.53
28720.1
-491.861
-2007.75
30872.5
-2099.76
146.13
31333.3
-2053.43
2433.12
31684.8
-2448.39
4919.92
32959.6
-3754.63
7497.2
33855.5
-4748.02
11067.8
32253.7
-6231.38
14470
31027.8
-5736.07
16161.9
29988.7
-2925.86
16147.1
26511.1
-251.544
14940.4
19470.3
1035.16
9267.94
15439.2
3365.12
5343.61
7334.52
5357.57
7761.02
-6723.17
3018.47
10971
-16871.6
-260.048
12684.1
-23100.3
1641.74
12347.4
-22772.1
4619.01
10980
-19283.4
6205.28
9091.47
-16333.5
6047.87
7074.82
-16844.9
4596.98
-13941.7
2498.41
2083.81
31.2639
2004.86
314.789
1558.83
3637.9
-1951.13
17015.3
2134.83
-3635.42
24164.8
1642.2
-3597.04
29074.6
-35.0244
-1876.65
30993.6
-1490.5
16.7191
30978.1
-1180.69
2118.02
31315.3
-1463.32
4416.11
33661.7
-2805.88
6907.93
35281.9
-3788.24
10277.9
34295.8
-5315.8
13313.6
32959
-4867.74
14668.8
30433
-1663.67
14386.7
26197.9
850.407
12257.9
20562.5
1336.53
6261.02
17616
4446.1
5224.39
2479.54
6079.52
7631.93
-11266.6
2120.45
11119.7
-18341.7
-2195.88
13476.3
-24932.6
-741.599
13643.8
-26273.3
3123.72
12176.7
-23628.9
5659.48
9814.19
-20193
6121.14
7092.01
-19263.6
5100.06
-14937.9
3093.26
1984.76
-247.462
1946.46
378.92
939.634
3439.07
-1711.39
17283.4
2313
-3217.13
24384.5
1624.11
-3331.19
29233.9
283.021
-1867.98
30782.1
-891.958
-81.7844
30181.4
-622.696
1920.06
30650.9
-1034.42
4025.42
33963.8
-2173.53
6397.81
36054.8
-2984.13
9477.23
35649.6
-4319.26
12174.4
34254.4
-3883.69
13143.6
30111.3
-509.249
11926.3
25971.6
1633.09
8384.05
23069.6
1336.35
3838
15935.4
6502.92
5180.91
-4358
5426.05
7215.41
-14834.9
1325.3
10909.9
-18944.1
-3365.86
13723.7
-25053.8
-2980.1
14487
-28296.7
984.844
13209.6
-26900.8
4316.64
10465.3
-23333.5
5701.81
7249.43
-21469.4
5315.2
-15639.8
3306.89
1865.4
-429.435
1847.78
650.466
128.466
3397.03
-1391.06
17325.9
2442.14
-2959.25
24777.2
1533.2
-3174.87
29196.3
597.921
-1938.2
30189.4
-246.857
-171.393
29068.4
-264.359
1749.67
29924.9
-839.807
3693.93
33948.7
-1646.39
5914.1
36298.3
-2244.64
8662.33
36357.9
-3292.96
11123.9
34677
-2739.48
11643.8
29239.5
491.226
9249.85
26647
1883.11
5568.64
24372.7
2623.06
4022.01
10409.5
7177.08
5248.93
-10152.4
4437.58
6830.78
-17449.2
683.271
10440.5
-19209.4
-3774.27
13530
-24203.4
-4402.43
14812.6
-28673.4
-1306.19
13955.8
-28773.9
2409.24
11145.1
-25534
4799.77
7424.26
-22827.7
4971.74
-15604.2
3168.48
1731.72
-317.591
1735.93
807.441
-508.649
3151.72
-1176.35
17622
2140.67
-2829.56
25351.4
1400.79
-3113.84
28919
897.112
-2014.91
29230.9
233.095
-248.594
27873.1
-169.182
1570.94
29256.7
-793.756
3367.27
33621.6
-1176.87
5415.36
35942.1
-1495.62
7863.47
36234.4
-2202.01
10092.5
34002.6
-1472.21
10257.3
27846.7
1294.3
7600.19
27227.6
2190.65
5145.65
23368.3
3667.68
5218.32
4148.78
6112.64
5492.76
-13985
3321.66
6607.34
-18991.1
89.9394
9799.19
-19263.3
-3550.82
13048.9
-22692.2
-5124.91
14711.9
-27530
-3139.05
14379.7
-29018.7
296.351
11694.2
-26569.6
3503.6
7472.49
-22986.4
4215.42
-14292
2564.67
1330.55
382.301
1528.42
-461.689
39.7163
2628.08
-1273.62
16335.6
2464.96
-2530.58
25451.9
1496.87
-3021.38
28827.7
983.51
-2060.48
28408.8
315.054
-335.979
27007.8
-347.823
1340.63
28816.2
-754.776
2998.24
33113.7
-728.021
4873.86
35037.8
-654.299
7098.39
35218.2
-977.368
9063.36
32401.9
-193.674
9041.25
25988.4
1981.08
6208.24
27180.1
2935.27
5119.56
20709.8
3740.87
6128.51
-2157.85
5145.22
5905.48
-16480.3
2370.37
6596.16
-19595.6
-554.31
9188.39
-19339.9
-3067
12414.3
-21146.4
-5294.68
14406.5
-25621.5
-4375.44
14568.8
-27871.4
-1696.81
11972
-26152.5
1887.36
7603.36
-22082.6
3304.26
-14003.2
2096.87
1544.59
1053.02
1285.7
-364.039
927.244
2025.42
-307.819
13433.1
3264.5
-1749.67
25243.2
2013.23
-2854.11
29253
1030.94
-2245.89
28159.3
60.5169
-567.871
26451.4
-675.121
973.632
28336.5
-620.688
2543.46
32074.4
-178.268
4276.55
33306
228.838
6336.56
33047.2
244.957
8144.34
29667.6
987.237
7755.15
23766.8
2613.12
4936.16
26420.5
3605.92
5829.68
15561.1
4259.54
7057.91
-7739.8
4179.58
6426.52
-17655.8
1563.01
6745.34
-19078.6
-1177.24
8744.36
-18865.5
-2823.45
11768.3
-19450.7
-5066.61
13989.4
-22815.2
-5302.22
14651.6
-25494.4
-3289.24
12861.3
-24547.1
-3.57207
10454.7
-21728.1
1930.88
-16417.5
1714.24
2331.63
1173.86
972.492
1966.02
17.4477
1817.14
1978.6
9746.19
4058.27
-194.836
24844.9
2911.19
-2473.05
30453
1471.1
-2667.54
28724.3
163.158
-1045.85
26395.4
-966.664
460.791
27860.7
-401.568
1977.32
30514
566.931
3610.33
30960.8
1113.03
5456.5
30100.4
1377.46
7497.37
25814.1
1992.84
7244.18
20788.5
3296.92
5885.86
23461.6
4286.03
7816.49
9719.84
3771.78
7885.22
-11218.1
3188.48
6947.29
-18068
975.787
7033.26
-18003.8
-1593.98
8574.14
-17863.3
-3001.95
11234.7
-17920.1
-4627.98
13614.9
-19754.7
-5857.45
14596.1
-22255.3
-4571.54
13901.9
-22161.1
-1979.13
12770.9
-21291.3
531.216
-17884.7
493.213
3420.79
632.524
540.505
3720.58
-1708.66
2004.46
3355.25
6186.1
4448.35
972.173
23251.2
4409.79
-1935.13
31370.1
2372.93
-2968.46
29277.1
912.771
-1696.37
26199.5
-570.913
-172.425
26698.7
90.3627
1316.06
27942.8
1446.75
2903.39
27566.1
2031.47
4415.99
26339.9
2394.49
6891.83
20462.3
2911.69
7408.42
16375.3
3896.48
7131.69
19411.1
4358.26
8984.75
4893.46
2966.2
8495.87
-13254.5
2392.68
7438.52
-17919.7
713.768
7383.23
-16445.8
-1678.61
8592.62
-15898.3
-3387.86
10819
-16066.2
-4282.14
13253.3
-16502.6
-5883.01
14337.5
-17947.7
-5542.27
14218.4
-18577.2
-3582.4
13474.3
-19309.1
-1275.69
-17670.2
343.527
4272.32
-484.063
268.977
4428.35
-3725.38
2334.52
3349.32
3222.55
4614.41
935.177
20510.8
5555.09
-1511.89
30611.5
3562.98
-2957.33
29045.9
2101.58
-2409.31
25413.4
708.485
-1015.03
24562.7
1206.71
440.774
24343.7
2524.03
2079.24
23179.3
3077.99
3179.97
22189.3
3293.96
6076.61
14065
3748.14
7385.76
11028.4
4183.57
7827.33
15179.6
3879.84
9730.57
840.501
2170.62
9048.14
-14243.7
1571.91
7916.56
-17551.4
567.257
7730.19
-15058.4
-1437.65
8681.52
-13560.8
-3520.18
10500.4
-13883.4
-4253.31
12832.6
-13602.2
-5509.28
14236.9
-13474.3
-6148.19
14401.9
-14312.3
-4672.28
13954.4
-15943.6
-3092.19
-16086.7
-873.264
4598.47
-1801.05
136.071
4891.11
-6071.09
2607.96
3380.43
463.047
5006.42
887.037
17425.4
6003.29
-1071.93
28041.7
4861.41
-2560.04
27332.7
3522.7
-2701.64
23388.5
2421.26
-1743.29
21178.2
2652.37
-539.205
19627.8
3667.07
1130.35
17665.2
3973.34
1842.76
17694.6
3921.61
5066.58
6811.28
4190.94
7110.22
4870.8
4272.01
8280.2
10681.1
3640.67
10205.3
-2304.28
1398.07
9530.95
-14011.5
457.616
8396.89
-16594.5
218.825
8053.5
-13707.1
-966.542
8705.05
-11182.9
-3015.83
10114.1
-11253.6
-4077.89
12230.8
-10773.9
-5020.24
14086.9
-9172.89
-6223.42
14666.1
-9457.33
-5494.43
14673.6
-11978.5
-3984.15
-13369.9
-2768.68
4452.94
-2858.32
89.1825
4337.31
-8020.55
2717.7
2719.35
-2368.53
5568.05
1074.02
13291.8
6201.48
-956.965
24347.3
6010.17
-2135.23
23858.9
4870.78
-2533.65
19980.1
3970.16
-2111.6
16847.1
4022.74
-1409.58
14530.8
4505.83
250.15
11806.9
4406.69
818.015
13446.1
3993.77
2814.51
1260.06
3895.14
5492.15
-968.382
3846.35
8530.95
5108.13
3119.47
10281.1
-4124.49
344.068
9880.51
-12438.1
-962.641
8920.48
-14799.1
-606.941
8375.58
-12331.9
-611.394
8610.95
-9238.87
-1995.3
9548.79
-8784.18
-3309.92
11264.9
-8196.52
-4260.45
13509.2
-5757.27
-5673.88
14823.9
-4973.02
-5821.36
15171.5
-7717.8
-4644.65
-10413
-3241.55
3964.62
-3384.37
48.9948
3917.62
-9930.75
2583.32
2111.69
-5730.31
6184.17
694.804
8760.43
6374.62
-1862.25
20582
6584.47
-2692.14
19159.3
5685.41
-2919.06
15309.1
4953.55
-2695.69
11743.4
4829.36
-2104
9156.31
4733.17
-17.5523
5465.98
4225.23
3044.65
6922.83
3453.52
3910.61
-2033.48
2608.43
4656.72
-3920.35
2663.5
7651.36
1541.98
993.325
9742.09
-4946.12
-919.44
9942.8
-10005.8
-2343.69
9385.18
-11956.6
-1919.87
8726.83
-10489.2
-812.675
8480.68
-7729.5
-975.931
8886.09
-6944.85
-2072.08
9898.28
-6069.23
-3016.57
12152.4
-3564.25
-4337.34
14372.6
-2149.4
-4981.33
15355.1
-3977.66
-4687.5
-7072.94
-3680.59
3669.36
-3418.21
-80.9222
3299.64
-10881.7
2185.07
1553.17
-8653.81
5438.49
-592.831
5191.86
6375.39
-2599.33
16735.9
6204.18
-3263.49
14358.1
5695.69
-3312.24
10320.2
5149.3
-2987.13
6673.37
4839.78
-2092.95
4125.67
4278.2
221.169
31.5034
3482.11
4489.68
175.449
2887.15
4640.43
-3290.72
1289.63
5701.07
-5146.66
565.229
7985.7
-172.038
-292.175
9538.7
-4779.52
-1303.76
9816.44
-7075.18
-2685.37
9674.86
-8646.97
-2504.87
9074.41
-7788.91
-1349.98
8451.52
-6011.55
-405.077
8458.18
-5499.74
-810.052
8692.01
-4170.88
-1514.63
10311.7
-2428
-2182.17
12867.9
-1581.9
-2680.24
14683.5
-2160.58
-3390.77
-4215.4
-3186.94
3802.88
-3229.65
-349.996
2718.8
-10191.9
1419.31
-310.219
-9529.89
4657.35
-2154.42
1729.7
6023.73
-2345.17
11534.4
5851.3
-2963.14
9963.21
5340.68
-3233.47
6029.6
4780.88
-3051.32
2461.82
4148.95
-1596.89
-237.994
3042.73
1908.96
-4209.53
763.296
5189.15
-2723.54
-331.33
3846.03
-1901.32
-24.4589
5728.34
-5557.89
-1315.38
7853.96
-411.065
-1640.65
9437.3
-4111.32
-1693.77
10156.1
-4726.96
-2369.37
10088
-5526.14
-2100.66
9239.47
-4778.34
-1147.32
8598.88
-4285.37
-147.905
8563.03
-4742.2
201.137
8685.61
-3239.86
-139.043
9571.96
-2413.87
-101.623
11260.9
-2998.31
292.792
12924.6
-2822.97
-712.264
-2279.71
-1582.74
3216.72
-2280.3
-472.782
1205.72
-5786.41
-406.512
-5024.48
-5778.01
3688.64
-7716.56
-152.929
5354.7
-6189.01
5023.74
5513.09
-5659.7
5094.34
4695.11
-5377.67
2307.23
3627.31
-4647.77
-506.543
2267.45
-2330.6
-2960.06
237.617
1791.9
-5224.41
-3515.67
4006.22
-2147.39
-3119.98
5170.94
-1569.62
-1687.54
5781.85
-3595.63
-2541.13
7546.72
778.362
-2659.82
8942.88
-2101.4
-2647.05
10249.8
-2322.16
-2634.42
10659.7
-2291.74
-2354.11
10039.4
-1399.2
-1499.16
9101.96
-1784.86
-361.076
8659.32
-3411.53
521.154
9011.89
-2974.62
760.822
9748.56
-2704.52
548.56
10526.9
-3906.21
821.345
11226.1
-3782.08
643.903
-1325.91
414.765
1282.8
-1.82357
-1966.2
-1806.02
-8842.7
1520.33
-12628.3
3861.66
-11495.7
4030.56
-9056.84
2724.04
-7334.38
582.842
-5570.41
-2361.45
-3014.98
-5715.75
-727.577
-7781.85
1700.21
-4737.88
4234.6
-4186.88
4285.65
-3618.66
7798.19
-2576.89
8928.25
-2901.05
9437.44
-2406.4
9319.07
-1755.65
9122.23
-825.019
8616.52
-866.385
7176.18
-1503.35
6700.87
-2114.56
6963.19
-2721.89
7129.98
-3928.49
7199.21
-3798.43
-54.7018
3481.79
-180.384
2234.44
4656.75
-223.406
3826.91
1059.39
5797.96
3392.33
-5815.48
9447.03
2060.86
-8279.49
8437.17
-3278.96
-6707.55
6020.26
-6742.99
-3410.55
4610.06
-6552.88
790.873
3521.87
-5615.54
5295.4
2279.1
-3586.3
9045.5
797.251
-636.197
11870.3
-64.9066
1432.55
13282.7
247.001
2173.67
13014.1
1470.41
1938.86
11057.4
2971.83
1381.42
8062.29
4239.12
518.769
4994.13
5188.93
-538.585
2524.29
5736.09
-786.527
2361.55
4611.16
-2031.61
4474.53
2128.14
-4058.7
7325.56
480.452
-5210.69
10132.7
-522.393
-5458.28
12626.1
-1338.16
-5114.37
15054.6
-2344.64
-4296.78
17547.1
-3200.84
-3016.61
-2786.31
-391.002
3310.48
-164.647
2024.9
1065.74
1451.53
4931.55
-3034.74
8767.2
5958.55
-5315.11
13184.7
1808.54
-3634.85
14611.4
-11546.5
-303.341
12346.7
-17817.8
3582.7
10236.3
-18502.9
7055.89
8460.33
-17323.1
9847.33
6871.14
-15508.2
11626.5
5674.97
-13146.9
12618.8
5082.04
-10505
13151.6
5566.73
-8006.45
13288.4
7156.9
-6506.83
12590.5
9160.77
-5605.53
10731.5
10697.1
-4411.04
8453.65
11178.7
-3057.65
6343
9759.93
-182.418
5286.27
6631.11
1457.94
6841.21
2135.05
141.835
9710.24
-1885.6
-123.036
12415.5
-4176.64
295.78
14356.1
-5377.48
874.331
16019.7
-6920.63
1479.08
17655.5
-8419.26
2351.77
-6961.44
3737.87
2986.28
287.934
2302.12
1581.46
2280.66
4719.83
-1105.3
9578.9
6332.1
-1678.77
14744
1223.52
415.303
18221.9
-12200.7
3312.48
16450.1
-18111.2
6195.98
14386
-19078.7
8658.62
12334.7
-18257.4
10227.9
10753.3
-16812.4
10913.9
10008.6
-15510.1
11419.5
9389.98
-14644.7
12175.3
10052.3
-14092.4
12735.6
12268.1
-12800.5
12526.2
14526.5
-10073.6
11381.1
15532.3
-5980.77
10041.8
14571.8
-1873.46
8856.13
11476.8
1635.6
9252.07
6482.67
3204.85
12104.8
-607.135
2959.66
14839.9
-6346.63
4141.69
16315.6
-8974.62
5041.88
16120.8
-9248.9
5167.81
15425.6
-10706.7
5128.46
15346.7
-13090.9
5331.59
-10512.3
5338.6
3110.41
688.637
2215.68
2653.69
2599.46
4038.42
999.792
9520.81
5212.38
364.983
15497.4
1414.32
1658.66
19979
-8995.31
3686.15
18837
-14042.4
6048.51
17007.1
-15384.9
8307.23
14699.1
-14997.3
9674.13
13194.3
-14338.9
10310
12462.2
-13536.2
11079.1
11170.6
-13185.3
12151.4
12083.6
-13898.8
12592
15612.3
-13466.6
12152.9
18095
-10061.6
11356.5
18317.7
-4837.27
10477.9
15992
-72.2501
9825.78
11281.2
3676.66
11628
3986.87
3570.41
14684.7
-5471.8
4359.74
16238.5
-11683.8
6475.08
15924.5
-13584.2
7698.98
13945.8
-12285.2
7566.28
11845.2
-13512.4
7023.58
11120.7
-16788.5
6629.19
-12533.3
5508.81
3473.66
896.655
2191.41
3924.8
2580.1
3640.24
2464.53
9360.92
4366.54
1205.07
16063
2010.39
1658.76
20762.5
-5648.77
3147.8
20240
-10219.1
5363.49
18777.7
-12280
7737.11
16315.2
-12760.7
9375.56
15068.2
-13013.1
10247.4
14236.3
-12483.4
11167.5
12044.1
-11733
12162.9
13062.2
-12008.4
12410
17546.6
-11390.9
12064.5
20042.5
-8104.48
11715.6
19393.7
-3089.84
10380
16214.2
2125.59
9698.09
10469.8
4537.2
12197.7
25.496
3539.78
14887.9
-10668.2
4740.83
15379.6
-16702.8
7713.78
13719.3
-17955.1
9499.41
11171
-15926.3
9247.66
8689.26
-16820.3
8102.38
7558.58
-19484.3
6646.26
-12662.7
3562.64
3617.99
1000.23
2208.15
4739.67
2418.42
3369
3402.95
9230.32
3733.24
1472.63
16638
2762.84
1423.33
21109.3
-3222.03
2642.85
21140
-7469.68
4722.08
20096.3
-9857.63
7163.18
17507.8
-11035.8
9110.59
16540.4
-11703.4
10041.2
15895.6
-11450.6
10928.3
13293.4
-11050.4
11937
14217.4
-10773.7
12490
18578.5
-9083.35
12543
20765.1
-5707.08
11877.5
19940.9
-1461.28
9666.68
16413.9
3693.9
8986.17
9602.18
4309.93
11960.3
-3779.05
3118.41
15208.4
-14733.5
4091.63
15731.5
-20541.2
8085.14
13757.6
-21661.3
10672.8
11362.7
-19835.3
10534.8
9103.51
-19755.2
8945.33
7320.03
-20689.5
6290.38
-11729.9
387.134
3682.76
1078.45
2232.48
5083.96
2228.64
3234.88
3791.81
9155.48
3398.34
1583.39
17175.7
3334.27
1308.18
21120.5
-1479.96
2351.04
21383.6
-5092.71
4157.48
20474.6
-6823.47
6331.8
17950.5
-8311.12
8425.28
17358.9
-9552.98
9398.95
17316
-9762.21
10286.2
15129.4
-10548.2
11600.7
15849.7
-10308
12676.7
19157.2
-7275.52
12988.5
20862.2
-3613.93
11681.2
21265.4
-387.505
8491.34
17396.1
4313.81
7763.81
8076.27
5125.68
11579.8
-6868.02
2115.37
15708.5
-17639.3
2304.45
16472
-23938.5
7355.82
14733.6
-25518
11028.6
12227.1
-23420.6
11493.9
9506.21
-22035
9847.16
5734.58
-20497.6
6962.45
-10346
1868.7
3614.38
1194.66
2158
5146.24
2095.75
3323.83
4174.99
8928.79
3374.74
1910.49
17762.2
3597.54
1389.58
21151.5
-255.547
2221.81
21118.4
-3097.62
3703.47
19824.3
-3793.15
5424.72
17529.1
-5118.35
7428.76
17549.1
-7199.44
8481.65
18266.7
-7913.19
9537.7
17134.5
-10056
11265.9
17670.9
-10029.3
12640.9
19613
-5952.28
12835.8
21351.4
-2192.69
11064.1
23367
207.317
6850.49
19934.1
4565.66
6522.91
6023.21
6129.07
10816.7
-8205.62
596.825
15247.7
-19655.3
-181.735
15976
-26974.1
5917.29
14412.6
-29350.2
10762.1
11992.7
-26878.9
11951.6
9181.56
-24158.3
10543.7
7017.49
-21992.6
7669.12
-11227.3
1243.91
3717.64
1231.58
1968.62
5291.34
1719.02
3475.37
4729.41
8405.08
3487.08
2415.36
18317.7
3744.62
1482.65
21342.4
657.454
2009.87
20596.7
-1696.57
3250.35
18412.1
-1528.98
4666.59
16412.1
-2502.43
6424.47
17531
-5333.14
7521.81
19004.2
-6458.44
8889.16
19053
-9410.38
11046.2
19424.7
-9537.09
12412.4
20404.4
-4963.91
11658.2
23082.2
-1109.7
8387.19
26264.7
1611.94
4300.66
21029.9
6457.63
5830.18
2791
7088.63
9925.97
-8949.11
-363.392
14093.8
-21393.5
-2726.05
14704.5
-29774.9
3778.55
13030.6
-32740.5
9629.13
10729.5
-30044.8
11613.9
8093.26
-26295.8
10758.6
5045.76
-22653.6
8248.73
-11517.5
2965.89
3751.39
1176.58
1845.27
5267.43
991.706
3653.68
5193.77
7577.81
3640.04
2908.57
18764
3864.8
1477.11
21801.2
1375.26
1633.92
20156.7
-702.046
2721.15
16670.6
-83.9005
3948.92
14955.1
-960.713
5469.76
17568.3
-4189.32
6670.17
19557.8
-5424.86
8377.4
20484.1
-8369.17
10895.6
20914.5
-8795.53
11896.7
21738.3
-3910.88
10310.7
25472.6
144.443
6533.63
28451.3
3027.49
4209.14
19181.1
8682.77
6194.36
-397.119
7221.9
9410.84
-9216.64
-939.104
12597.3
-22250.2
-4677.19
12960
-32023.2
975.697
10999.6
-35214.6
7422.58
8794.75
-32512.1
10224.2
6713.69
-28480.5
10303.3
3938.99
-23214.9
8359.45
-11018.7
3495.5
3619.88
1305.17
1712.59
4952.86
58.2724
3705.64
5364.51
6230.4
3900.79
3211.32
19020.5
3883.41
1425.39
22201.4
2093.26
1281.15
19424.2
501.149
2163.75
14861.8
791.515
3089.05
13656.1
-362.932
4480.36
17672.6
-3461.74
5935.56
19832.4
-4560.01
7965.47
21308
-7065.89
10707.4
22217.6
-7845.14
11340.4
23407.2
-2747.82
9156.53
28063.4
1288.52
5500.96
30072.8
3419.12
5072.6
16383.8
9633.61
6976.48
-3440.03
6386.58
9439.37
-9473.43
-1113.37
11422.9
-21466.5
-6355.77
11222.4
-32776.9
-2241.76
8870.44
-36267.7
4195.46
6602.6
-33822.9
7726.89
4712.58
-30058.7
9023.12
2249.52
-23235.3
7675.58
-9390.94
3364.15
3566.12
1523.51
1530.11
4824.14
-791.327
3549.12
5331.28
4854.4
4048.57
3364.06
18950.3
3941.71
1478.88
22268.8
2839.68
1212.49
18211.3
1777.91
1708.64
13243.7
1385.81
2111.88
12922.2
-164.192
3501.07
17777.6
-2868.93
5302.06
19850.7
-3869.47
7620.16
21694.2
-5879.94
10451
23439.5
-6731.67
10773.5
25294
-1702.92
7783.81
30928.9
1992.11
5553
30694.3
4164.89
6538.12
13079.5
9343.13
7968.79
-5878.05
5162.53
9951.99
-10202.8
-916.34
10886.2
-19075.9
-7442.47
9936.99
-31273.4
-5290.69
7237.08
-35712.8
517.601
4720.11
-33649.4
4487.55
2670.32
-30366.2
6947.26
359.931
-22313.7
6151.26
-6807.41
2805.82
3621.81
1755.5
1343.11
4832.63
-1624.05
3280.83
4839.08
3021.79
4536.39
3765.98
17447
4341.79
1888.84
21929
3513.2
1390.35
16917.3
2537.73
1354.86
12129.4
1488.35
1121.25
13023.9
-297.784
2601.28
17926.7
-2534.87
4779.77
20032.9
-3680.54
7334.87
22115.1
-5089.6
10073.2
24721
-5464.37
10217.5
27246.3
-827.362
7320.28
33317.1
2664.36
6988.15
29743.3
4783.23
8174.47
9838.81
7936.81
9087.3
-7464.14
3677.04
10732.9
-11349.3
-789.275
11147
-16047.2
-7327.21
9662.32
-27523.6
-7691.57
6635.48
-33371.1
-2744.18
3623.61
-31926.2
1310.81
981.4
-29095.8
4630.13
-1320.9
-20542.1
4542.57
-4671.89
1783.21
3760.53
1892.17
1045.45
5472.01
-3032.74
2715.07
5387.12
87.2104
5847.15
4641.88
14943.9
5160.53
2299.53
21979
3680.44
1216.02
16386.9
2430.66
788.459
11851.3
886.07
189.038
13899.2
-551.885
1781.07
18377
-2348.07
4364.24
20819.5
-3739
7137.28
23026
-4508.14
9705.59
26090.6
-4086.26
9879.33
29006.2
13.6673
7972.43
34744.6
3317.34
9011.91
28008.8
4159.77
9940.99
7855.3
5900.19
10307
-7867.55
2042.46
11519.4
-12184.7
-1362.08
11788.5
-13548.1
-6257.61
10066.9
-22505.7
-8967.49
6937.25
-29614.8
-5360.06
3493
-29316.3
-1222.37
13.6504
-26669.4
2658.83
-1981.53
-18939.5
3477.78
-3991.74
1136.28
4002.15
1777.64
819.849
6568.03
-5458.96
2251.46
6909.67
-2690.23
6044.52
5600.33
13011.6
5722.6
2088.94
23288.3
3612.76
-194.219
17643.5
1533.69
-493.913
12075
-110.583
-723.397
14737.9
-789.715
999.766
18931.6
-2102.53
3989.85
21907.2
-3648.99
7021.27
24221.9
-3894.95
9542.72
27124.6
-2561.93
10054.3
30172
884.905
9461.89
35137.8
3711.05
11323.6
26822.2
3328.11
11548.1
7807.07
3740.06
11357.3
-6659.38
244.34
12012.9
-11784.4
-2579.18
12307.9
-11789.3
-5220.41
10853.6
-17312.5
-9085.2
7682.43
-24500.1
-7504.79
3962.89
-25820.3
-3319.46
-24.6624
-23682.7
778.315
-2055.16
-17603
2458.81
-5572.26
1233.79
4547.4
889.143
700.449
7603.25
-8778.29
2391.28
8264.7
-4970.09
5998.15
6673.91
12358.4
5821.75
2307.85
25160.8
4355.27
-1812.58
20961.6
1439.35
-2367.86
13282
-1045.89
-1804.02
15699.9
-1403.09
248.24
19896.9
-1982.47
3650.38
23378.2
-3443.27
6857.13
25668.7
-3105.49
9596.25
27611
-1177
10965.9
30129.8
1950.26
11767.4
34579.9
3976.91
13611.7
26619.5
1874.9
12890
9292.13
2115.31
12193.1
-4208.39
-1091.82
12263.1
-10194.7
-3590.64
12624.2
-10603.5
-4900.49
11747.6
-13093
-8291.5
8793.97
-18632.4
-9057.56
4973.15
-21433.9
-5407.68
1009.74
-20647.5
-1307.61
3835.04
-20878.5
841.763
-10959.9
-967.823
5131.31
-903.982
589.303
7919.52
-12053.3
2808.34
8628.53
-7277.34
6454.79
7513.54
13141.9
5551.21
3580.59
26725.7
5136.68
-1935.32
24910.8
2918.1
-3822.7
15686.4
-621.88
-2983.8
17438.8
-2083.4
-514.065
21317.2
-2148.21
3247.42
24860.4
-3038.03
6539.3
26938.4
-2083.5
9624.28
27267
186.539
11879.1
28704.2
3049.1
13790.6
32939.7
4028.01
15421.3
26689.3
1165.97
14021.4
11571.9
1338.22
12912.1
-1115.7
-1470
12574.2
-7664.96
-4074.38
12933.5
-9186.53
-5377.85
12731
-10095.9
-7266.89
10493.3
-12953.6
-9491.03
6742.17
-16102.9
-7269.76
2294.41
-16749.8
-3155.52
-2753.37
-17479.2
251.166
-9695.97
1070.39
5325.87
-3132.98
555.06
7443.78
-14770.3
3249.1
7228.96
-9013.51
6936.54
6754.3
13772.1
6147.3
4494.09
27056.2
5891.87
-1318.49
28620.1
4555.43
-5195.96
19523.1
1115.88
-4523.57
20031.6
-1721.3
-1512.57
23109.9
-2020.32
2560.9
26197.1
-2142.75
5857.59
27813.7
-740.137
9258.97
26142.3
1554.94
12120.1
26200.9
3877.14
14817.2
29932.4
4242.25
16374.4
25469.8
1813.74
14819.1
13349.5
1173.75
13477.2
1698.01
-1083.22
13071.3
-4767.43
-4091.33
13415.5
-7079.7
-6133.4
13737.9
-7744.5
-7101.12
12509.8
-8488.32
-8923.79
9243.18
-10483.6
-8652.49
5864.35
-13124
-5070.79
1202.04
-14411.5
-1592.19
-10244.5
881.455
4889.69
-5156.46
670.903
6045.42
-16686.4
3700.03
5925.12
-10591.9
7103.23
6268.02
12966.1
7069.02
4317.92
27503
6741.37
-379.842
31184.5
5911.57
-5232.22
23901.6
3085.4
-5290.22
22786.4
95.6284
-2290.41
24699.3
-829.621
1644.45
26820
-511.54
4767.92
27900.7
797.827
8422.59
24063.7
2674.44
11691.9
22837.3
4429.49
15064.7
25591.8
4668.67
16648.6
22900.4
2489.92
15402.6
14093.5
992.977
13895.1
3640.95
-228.428
13559.4
-2148.61
-3265.68
13911.2
-4471.98
-5992.7
14506.8
-5202.59
-7254.26
14419
-5093.4
-8372.15
12394.6
-5512.7
-9204.78
9379.2
-8574.32
-7053.23
7425.73
-12619.9
-3852.59
-11039.5
-1333.47
3788.11
-6380.2
934.944
3784.78
-17631.8
3990.64
4055.55
-11891.7
6924.38
4725.41
11450.5
7472.18
2724.97
27974.8
7801.3
193.79
31274.3
7434.84
-3359.89
26313.7
5163.42
-4041.04
24950.5
2545.19
-2099.04
25847.4
1401.39
1049.99
26620.9
1475.8
3656
27243.3
2109.33
6783.5
21666.2
3257.98
10232.5
18870.4
4487.44
14390.5
19997.2
4714.03
16418.7
18695
2719.29
15785.9
12877
1006.93
14162
3846.59
890.932
13662.4
-787.419
-1416.51
14016.8
-2374.53
-4412.55
14748.7
-2732.85
-6521.38
15577.8
-2562.76
-7663.82
15372.2
-2179.62
-8837.27
13378.6
-4026.61
-8419.07
10636.9
-8377.88
-6172.85
-9621.18
-3384.94
2359.14
-6497.85
1208.14
1016.99
-17467.6
4102.27
792.301
-11763.3
6566.04
1127.41
10055.4
7770.48
115.681
26478.1
9302.74
-1029.15
28792.3
9408.41
-2858.67
25651.6
7449.49
-3039.31
24702.2
5217.98
-1396.1
25080.2
3822.71
1175.24
25075.3
3205.26
3354.66
25528
3037.02
5483.25
18730.9
3472.59
8617.08
14394
4105.44
12814.5
12937.7
3999.14
15611.9
12819.3
2387.42
15797.4
9529.35
1113.66
14316.7
2245.56
1393.79
13358
-1255.26
808.657
13459
-1696.28
-1595.85
14153.4
-1007.75
-4359.5
15493.5
-735.006
-6074.08
16797.5
-328.897
-7392.21
16748.6
-1003.48
-7871.16
15196.6
-4505.07
-6961.57
-7238.47
-5480.67
988.798
-5463.03
1268.87
-2586.12
-15619.8
4094.16
-4147.59
-10898.8
6252.38
-3181.04
7164.88
8387.87
-2254.46
21198.7
10569.6
-2637.85
23728.1
11096.2
-3383.13
21937
9479.23
-2742.61
21451.9
7255.46
-897.639
21893.8
5403.17
1277.2
22058.2
4140.19
3408.45
22740.4
3445.73
5097.97
15156.8
3131.79
7859.69
9101.95
3186.74
11323.6
6472.17
2873.91
14280.7
6887.3
1924.41
15256.8
5463.78
668.271
14123.7
512.454
557.028
12881.5
-2526.94
1297.01
12472.5
-2543.3
917.763
12868.3
-866.895
-1348.13
14198.1
-259.239
-3370.67
16325.4
-142.695
-4529.08
17781.9
118.595
-5311.72
17913.1
-1965.96
-6102.07
-5102.56
-5820.78
364.131
-3665.32
832.02
-6110.75
-11431.2
4094.11
-9684.35
-9272.2
6868.31
-7871.92
2089.07
9514.94
-5034.88
13082.7
11278.7
-4665.53
16941.6
11793.3
-4773.59
16454.2
10275
-3754.88
16392
7980.66
-1694.46
16907.6
5684.75
441.974
16600.9
3770.45
2871.04
16954.5
2710.13
5306.3
10654.2
1819.97
7766.15
4122.2
1119.34
9862.05
1702.38
1119.36
12240.1
2144.73
931.218
13771.2
1973.64
-49.2835
13324.8
-236.774
-569.041
12392.6
-2390.29
-81.0755
11644.4
-2788.74
1058.65
11677.6
-1292.19
731.05
12607.4
-530.761
-695.347
14384.2
-546.846
-1417.69
16567.2
-79.0973
-1663.77
18212
-791.879
-3523.24
-3034.9
-4956.32
807.784
-1529.68
56.4844
-8131.22
-5000.6
2884.36
-14569.2
-5446.48
6790.3
-14589.8
-1466.33
9281.54
-11826.8
5024.11
11035.2
-10049.5
8972.31
10965.1
-8470.22
9314.26
9099.8
-6107.77
9232.38
6796.81
-3030.95
9258.61
4358.32
-503.795
7787.72
2149.49
3007.34
8560.37
1244.43
6725.99
4965.56
-97.648
8596.15
1191.23
-1624.58
9415.64
-125.187
-1544.06
10633.6
-200.942
-1142.08
12006.9
-300.882
-1225.53
12489.8
-1027.88
-1525.44