/*--------------------------------*- C++ -*----------------------------------*\
  =========                 |
  \\      /  F ield         | OpenFOAM: The Open Source CFD Toolbox
   \\    /   O peration     | Website:  https://openfoam.org
    \\  /    A nd           | Version:  11
     \\/     M anipulation  |
\*---------------------------------------------------------------------------*/
FoamFile
{
    format      ascii;
    class       volVectorField;
    location    "10";
    object      U;
}
// * * * * * * * * * * * * * * * * * * * * * * * * * * * * * * * * * * * * * //

dimensions      [0 1 -1 0 0 0 0];

internalField   nonuniform List<vector> 
17196
(
(0.744301 -0.0509724 0.305076)
(2.43737 -0.243838 0.494009)
(0.366224 0.155866 0.768603)
(-2.10248 0.283667 0.152967)
(-3.53909 -0.0840344 -0.501818)
(-3.31997 -0.366295 -1.09617)
(-2.32671 -0.580061 -1.28008)
(-0.578237 -0.565806 -1.38442)
(0.798496 -0.605959 -1.22975)
(1.9102 -0.699864 -0.894461)
(2.8123 -0.7607 -0.60949)
(3.49411 -0.739598 -0.5869)
(3.97335 -0.679916 -0.694114)
(4.20056 -0.594849 -0.704007)
(4.06653 -0.480083 -0.410642)
(3.48312 -0.321453 0.323077)
(2.63382 -0.169225 1.24496)
(1.5656 0.122033 1.47062)
(1.16468 0.34725 0.714161)
(1.3416 0.32875 -0.072806)
(1.68061 0.252278 -0.582847)
(2.084 0.218117 -0.880647)
(2.49048 0.178937 -0.974926)
(2.8746 0.142023 -0.852159)
(2.72122 0.210134 -0.447173)
(0.731241 -0.0870473 0.201929)
(1.12888 -0.24507 0.420637)
(-1.29299 0.652905 0.344503)
(-2.62531 1.12185 -0.573194)
(-2.92408 0.605558 -1.46504)
(-2.4278 0.0785081 -2.33295)
(-1.33493 -0.299741 -2.60788)
(0.196434 -0.390383 -2.75159)
(1.67824 -0.511364 -2.63514)
(2.94568 -0.713338 -2.34148)
(4.01713 -0.906328 -1.99189)
(4.92284 -0.987596 -1.6647)
(5.59745 -0.859276 -1.32003)
(5.9212 -0.494366 -0.901063)
(5.68969 0.00499445 -0.277543)
(5.08192 0.277883 0.45779)
(4.32763 0.280662 1.1386)
(3.67141 0.242149 1.3991)
(3.47223 0.3815 0.98628)
(3.65293 0.574138 0.338412)
(3.94656 0.738682 -0.236572)
(4.25679 0.809967 -0.631676)
(4.53498 0.738234 -0.805705)
(4.8495 0.608326 -0.809842)
(4.92575 0.662387 -0.546232)
(0.796044 -0.0226012 0.283919)
(0.930175 -0.0529594 0.483595)
(-1.47175 0.994905 0.0403304)
(-2.36994 1.59142 -0.99376)
(-2.25105 1.46278 -2.31778)
(-1.67023 1.13229 -3.246)
(-0.662619 0.785106 -3.54178)
(0.569259 0.621535 -3.56348)
(1.82183 0.392187 -3.36965)
(2.93226 0.181076 -3.13143)
(3.91171 0.00927591 -3.02476)
(4.79904 -0.0915924 -2.83562)
(5.46508 -0.0385958 -2.3674)
(5.72086 0.243579 -1.72725)
(5.59656 0.580224 -0.980797)
(5.25469 0.676789 -0.185191)
(4.64916 0.461642 0.568963)
(4.14551 0.0922281 1.02413)
(4.07458 -0.0448673 1.06455)
(4.43773 0.0202295 0.763809)
(4.8882 0.324974 0.33847)
(5.1909 0.615457 -0.0392728)
(5.35803 0.657844 -0.300489)
(5.60971 0.495171 -0.423388)
(5.87373 0.636339 -0.337772)
(0.820566 0.0258191 0.291483)
(0.836009 0.0726048 0.422673)
(-1.36468 1.23045 -0.326924)
(-2.08025 2.07435 -1.35507)
(-1.90227 2.38329 -2.51537)
(-1.31386 2.31527 -3.2041)
(-0.497336 2.09804 -3.32144)
(0.472535 1.88014 -3.24151)
(1.6091 1.52294 -3.1538)
(2.70924 1.20147 -3.09829)
(3.76958 0.940824 -3.25128)
(4.78874 0.82763 -3.35814)
(5.49248 0.907336 -3.10718)
(5.77767 1.07985 -2.50332)
(5.74271 1.11799 -1.67598)
(5.30352 0.936281 -0.738585)
(4.585 0.414594 0.0785533)
(4.00436 -0.158748 0.397433)
(3.80915 -0.423229 0.271366)
(3.96281 -0.575917 0.222908)
(4.35638 -0.370752 0.26157)
(4.68218 0.0412086 0.210175)
(4.59809 0.218668 0.0859367)
(4.27576 0.0907652 0.11644)
(4.88649 0.28693 0.191374)
(0.792824 0.067803 0.322334)
(0.832185 0.155034 0.487884)
(-1.28854 1.51165 -0.541653)
(-1.87173 2.57947 -1.49483)
(-1.72801 3.17691 -2.38044)
(-1.20756 3.31092 -2.90226)
(-0.438711 3.20213 -2.97431)
(0.522466 2.94369 -2.90114)
(1.58911 2.5802 -2.92393)
(2.63796 2.28182 -3.01292)
(3.70157 2.05683 -3.19923)
(4.76263 2.03262 -3.33995)
(5.52291 2.14477 -3.20062)
(5.9068 2.09186 -2.68626)
(5.90836 1.74231 -1.94653)
(5.27696 1.21627 -1.02081)
(4.508 0.417925 -0.215179)
(3.84769 -0.166398 -0.291813)
(3.14791 -0.398891 -0.410241)
(2.64277 -0.630597 -0.0238316)
(2.29528 -0.639306 0.193628)
(2.18542 -0.14198 0.177687)
(1.39054 0.374238 0.0301654)
(1.28771 -0.492178 0.40461)
(2.35797 -0.692451 0.654635)
(0.766724 0.0976059 0.346176)
(0.734929 0.238777 0.47097)
(-1.24263 1.83687 -0.706022)
(-1.73701 3.01274 -1.52638)
(-1.62131 3.7358 -2.12438)
(-1.12489 4.00657 -2.51359)
(-0.329437 4.01422 -2.57793)
(0.635086 3.77709 -2.57997)
(1.63179 3.48341 -2.6737)
(2.55601 3.23717 -2.83304)
(3.57512 2.99742 -2.92512)
(4.66719 2.99707 -2.97102)
(5.54316 3.14186 -2.86046)
(5.98149 2.92872 -2.50599)
(5.88833 2.32122 -1.89779)
(5.21575 1.49503 -1.01592)
(4.46942 0.440942 -0.425109)
(3.07208 0.0113091 -0.723316)
(2.33809 -0.386211 0.0232591)
(2.3746 -1.11758 0.798467)
(2.08912 -1.13471 0.87457)
(1.47058 -0.44503 0.59572)
(1.5421 -0.151305 0.59397)
(1.93677 -1.3697 0.679524)
(1.8227 -1.67428 0.70776)
(0.760148 0.115845 0.362311)
(0.611052 0.334134 0.482697)
(-1.19462 2.13652 -0.698967)
(-1.63233 3.33127 -1.37993)
(-1.56809 4.10421 -1.81863)
(-1.08904 4.44607 -2.11108)
(-0.308413 4.53638 -2.12532)
(0.629049 4.39467 -2.1669)
(1.5402 4.22095 -2.3132)
(2.36883 4.05464 -2.51448)
(3.34922 3.74708 -2.54848)
(4.48913 3.70328 -2.50697)
(5.46272 3.83819 -2.43472)
(5.88149 3.56513 -2.18349)
(5.68711 2.77103 -1.53692)
(5.20104 1.68473 -0.863387)
(4.04123 0.730393 -0.761313)
(2.22729 0.502006 -0.44389)
(2.68168 -1.02602 0.667178)
(3.14269 -1.98224 1.2283)
(2.99706 -1.8064 1.29253)
(2.59444 -1.13596 1.14697)
(2.3617 -0.920606 0.981088)
(2.421 -1.59063 0.673816)
(1.24933 -1.51705 0.486668)
(0.766521 0.121585 0.371173)
(0.642068 0.397313 0.529768)
(-1.06896 2.36314 -0.568132)
(-1.47053 3.54245 -1.15641)
(-1.46925 4.33328 -1.52922)
(-1.01159 4.6945 -1.76766)
(-0.27258 4.80887 -1.71406)
(0.519289 4.7918 -1.72954)
(1.34354 4.74775 -1.89397)
(2.13721 4.68767 -2.11399)
(3.0833 4.34075 -2.17271)
(4.24643 4.22936 -2.12107)
(5.21901 4.30113 -2.08157)
(5.59111 3.98593 -1.69657)
(5.42843 2.9648 -1.01376)
(5.07536 1.83426 -0.95833)
(3.04732 0.938922 -0.856983)
(1.93683 0.0906212 0.359954)
(3.00649 -1.89446 0.904944)
(3.57156 -2.78482 1.34902)
(3.52083 -2.54395 1.56065)
(3.17468 -1.8709 1.48123)
(2.8142 -1.58019 1.18407)
(2.39892 -1.98727 0.785208)
(2.22119 -1.86419 0.449582)
(0.744554 0.102091 0.355201)
(0.812287 0.330259 0.629266)
(-0.88834 2.5042 -0.386524)
(-1.28717 3.67842 -0.941685)
(-1.3337 4.46364 -1.27497)
(-0.915547 4.81453 -1.49219)
(-0.239612 4.91033 -1.35088)
(0.385992 4.96201 -1.34475)
(1.14133 5.06046 -1.49092)
(1.93335 5.12651 -1.71561)
(2.84456 4.8248 -1.84009)
(3.98394 4.65615 -1.84791)
(4.87134 4.6169 -1.71998)
(5.16735 4.14233 -1.11244)
(5.0795 2.98343 -0.842779)
(4.25808 2.25328 -1.15379)
(1.45457 1.67337 0.110897)
(1.895 -0.622605 0.80402)
(3.10443 -2.49184 0.801598)
(3.84723 -3.3812 1.2669)
(3.98144 -3.23806 1.68988)
(3.65269 -2.656 1.68953)
(3.1312 -2.24263 1.29698)
(2.57441 -2.45622 0.843)
(1.87961 -2.09751 0.53877)
(0.701735 0.0397322 0.352988)
(0.975693 0.249209 0.627754)
(-0.707663 2.61153 -0.222654)
(-1.11916 3.75935 -0.751122)
(-1.19694 4.53809 -1.0639)
(-0.844261 4.86125 -1.25209)
(-0.232972 4.89724 -1.02392)
(0.301587 4.94632 -1.00002)
(0.986369 5.21623 -1.13895)
(1.76729 5.41447 -1.3675)
(2.64181 5.20951 -1.55223)
(3.7212 5.00934 -1.62162)
(4.431 4.74967 -1.28926)
(4.67933 4.15087 -0.705432)
(4.5349 3.10136 -0.920032)
(2.929 2.40034 -0.775327)
(1.16865 0.807459 0.833117)
(1.89518 -1.43024 0.910778)
(3.10693 -2.7257 0.63355)
(3.97801 -3.76736 1.01517)
(4.3248 -3.83676 1.62113)
(4.07188 -3.36999 1.73606)
(3.42396 -2.8792 1.3181)
(2.75091 -2.8283 0.870096)
(1.67727 -2.28016 0.706981)
(0.667969 -0.0212875 0.360792)
(0.913006 0.228765 0.526496)
(-0.550896 2.71693 -0.0962406)
(-0.992086 3.80744 -0.591332)
(-1.10298 4.5858 -0.891635)
(-0.808001 4.85969 -1.01273)
(-0.265021 4.80845 -0.717158)
(0.253925 4.85035 -0.674822)
(0.877128 5.29175 -0.843295)
(1.6259 5.58465 -1.07893)
(2.4569 5.47559 -1.30231)
(3.45618 5.27445 -1.38809)
(4.00213 4.75802 -0.899384)
(4.15266 4.04802 -0.473451)
(3.5445 3.37832 -1.02266)
(1.4062 3.03751 0.291759)
(1.21727 -0.0961375 0.855784)
(1.79473 -2.01685 0.82704)
(3.00877 -2.86177 0.451966)
(3.9646 -3.89759 0.627854)
(4.504 -4.26758 1.31241)
(4.37432 -3.95763 1.5653)
(3.71739 -3.41886 1.21535)
(2.88994 -3.19296 0.887051)
(1.60491 -2.40486 0.76727)
(0.625293 -0.0553174 0.353261)
(0.83003 0.0884032 0.507312)
(-0.268807 2.68716 0.0522292)
(-0.921994 3.84062 -0.448589)
(-1.0554 4.59824 -0.704683)
(-0.788328 4.80028 -0.741137)
(-0.323866 4.65914 -0.409027)
(0.211695 4.74259 -0.373414)
(0.795034 5.31833 -0.593415)
(1.49681 5.66089 -0.849897)
(2.27676 5.63789 -1.08301)
(3.18733 5.42572 -1.13788)
(3.63372 4.65457 -0.581386)
(3.58834 4.05238 -0.422706)
(2.34256 3.74716 -0.506697)
(1.14431 2.17218 1.02444)
(1.34483 -1.18437 0.648393)
(1.70053 -2.53857 0.575721)
(2.86374 -2.96255 0.2836)
(3.85303 -3.8288 0.224566)
(4.53157 -4.47351 0.816778)
(4.52335 -4.37224 1.18112)
(3.97892 -3.8399 0.963441)
(3.07308 -3.49814 0.815052)
(1.50813 -2.46884 0.750311)
(0.594898 -0.0644366 0.349963)
(0.687623 -0.0313809 0.471202)
(0.0175445 2.68822 0.0339747)
(-0.919022 3.91964 -0.358099)
(-1.041 4.54845 -0.482755)
(-0.769283 4.66936 -0.421597)
(-0.39104 4.46193 -0.103034)
(0.165353 4.62445 -0.103718)
(0.72581 5.28505 -0.371867)
(1.36767 5.66287 -0.668952)
(2.09663 5.70442 -0.884982)
(2.91569 5.40009 -0.876279)
(3.27821 4.47682 -0.349291)
(3.07924 4.26069 -0.295605)
(1.73492 3.79429 -0.0109674)
(1.63534 1.09439 0.638744)
(1.51091 -1.95393 0.331505)
(1.6895 -2.88757 0.272556)
(2.66508 -3.02083 0.124424)
(3.70506 -3.66986 -0.0805701)
(4.429 -4.41615 0.255728)
(4.56004 -4.55368 0.669689)
(4.16545 -4.10968 0.614075)
(3.2348 -3.62506 0.638072)
(1.33849 -2.52185 0.714427)
(0.598611 0.0029975 0.325352)
(0.186212 0.040134 0.397042)
(-0.0474269 2.82373 -0.0765366)
(-0.835845 3.99369 -0.321469)
(-1.00209 4.48589 -0.268147)
(-0.73914 4.49887 -0.095164)
(-0.461202 4.27704 0.154927)
(0.105819 4.52237 0.122833)
(0.655161 5.21462 -0.165303)
(1.22977 5.56474 -0.488192)
(1.90463 5.61866 -0.676509)
(2.6591 5.22008 -0.623833)
(2.89746 4.23239 -0.180556)
(2.69327 4.29915 0.0152766)
(1.29033 3.59943 -0.000623828)
(2.02116 0.162954 0.28772)
(1.69448 -2.43163 0.0824218)
(1.78128 -3.07641 0.033797)
(2.46309 -3.06762 -0.0269028)
(3.53714 -3.46624 -0.26191)
(4.28293 -4.18864 -0.207509)
(4.53082 -4.49885 0.14664)
(4.30365 -4.16124 0.261031)
(3.23064 -3.47481 0.394827)
(1.64476 -1.84326 0.528791)
(0.618893 0.105619 0.278512)
(0.164646 0.128277 0.330873)
(0.212509 2.51514 0.153648)
(-0.485062 4.01138 -0.210048)
(-0.907831 4.48586 -0.106816)
(-0.748919 4.36208 0.147149)
(-0.577071 4.13763 0.34035)
(0.0071966 4.43021 0.304504)
(0.556971 5.08728 0.0273647)
(1.07689 5.3531 -0.302424)
(1.69401 5.36767 -0.471623)
(2.41837 4.89199 -0.403364)
(2.56283 3.91161 -0.0433791)
(2.17448 4.22534 0.276877)
(1.21015 3.03815 0.389856)
(2.38981 -0.802758 -0.0303533)
(1.89683 -2.71175 -0.0890675)
(1.92483 -3.08205 -0.0872332)
(2.33145 -3.05383 -0.144924)
(3.34084 -3.23019 -0.326397)
(4.1694 -3.84141 -0.495657)
(4.427 -4.21149 -0.315808)
(4.49624 -3.98546 -0.0533589)
(3.48056 -3.42854 0.0630332)
(3.36113 -2.28995 0.188562)
(0.649756 0.17657 0.223122)
(0.720599 0.0574737 0.247088)
(0.959488 1.68877 0.423851)
(0.292195 3.89943 0.020875)
(-0.700364 4.62174 -0.0101135)
(-0.819512 4.36098 0.289052)
(-0.773138 4.06939 0.45634)
(-0.136511 4.35105 0.447669)
(0.419788 4.88717 0.214771)
(0.901175 5.0372 -0.114248)
(1.46331 4.96451 -0.279306)
(2.13949 4.40092 -0.226761)
(2.39369 3.53241 0.111232)
(1.95621 3.99086 0.586557)
(2.13378 1.8613 0.200032)
(2.67049 -1.57075 -0.412458)
(2.10556 -2.82837 -0.212525)
(2.06962 -2.93609 -0.0969259)
(2.32228 -2.92813 -0.182745)
(3.15728 -2.97086 -0.265136)
(4.06336 -3.38591 -0.587795)
(4.3949 -3.78432 -0.607761)
(4.56697 -3.68294 -0.296539)
(3.96165 -3.42983 -0.188001)
(4.24434 -2.93857 0.0176654)
(0.781533 0.191404 0.0991045)
(1.24617 -0.170345 0.200752)
(1.37833 1.15985 0.402701)
(0.876815 3.77765 0.241388)
(-0.47667 4.85339 0.066031)
(-0.849451 4.49243 0.382256)
(-0.974347 4.04536 0.551419)
(-0.323441 4.2569 0.57727)
(0.245097 4.58598 0.406048)
(0.707184 4.612 0.08725)
(1.22504 4.45163 -0.0831306)
(1.78776 3.70954 -0.0402194)
(2.25392 2.97164 0.26553)
(2.19559 3.39206 0.697179)
(2.68326 1.12064 -0.211584)
(2.85363 -1.94659 -0.734887)
(2.30723 -2.82273 -0.30997)
(2.19589 -2.69601 -0.032539)
(2.39599 -2.6616 -0.127453)
(3.01615 -2.67996 -0.110795)
(3.92807 -2.86305 -0.472101)
(4.41544 -3.18617 -0.704315)
(4.46275 -3.2215 -0.457895)
(4.2608 -3.19586 -0.303713)
(4.14506 -2.82676 -0.335617)
(1.00371 0.0140389 0.0203716)
(1.48067 -0.452946 0.162685)
(1.49139 0.76135 0.273854)
(0.867749 3.45942 0.410543)
(-0.367737 4.91955 0.148415)
(-0.800697 4.58411 0.462257)
(-1.1121 4.01635 0.702342)
(-0.574538 4.00462 0.755139)
(-0.00394201 4.1122 0.618021)
(0.461307 4.02554 0.317728)
(0.963567 3.85034 0.125718)
(1.35611 2.84267 0.173056)
(2.0249 2.23685 0.354222)
(2.411 2.74004 0.520106)
(2.92626 0.444069 -0.657646)
(3.02491 -2.19235 -1.02497)
(2.51943 -2.78333 -0.441383)
(2.30151 -2.4487 0.0553195)
(2.48744 -2.3 0.0319322)
(2.94188 -2.34583 0.0983284)
(3.75261 -2.35197 -0.196522)
(4.40546 -2.4712 -0.621275)
(4.48716 -2.5909 -0.500936)
(4.37096 -2.77951 -0.321626)
(4.24475 -2.63954 -0.362717)
(1.15204 -0.200214 -0.0260187)
(1.52588 -0.810798 0.118141)
(1.56621 0.238462 0.250527)
(0.917232 3.01208 0.458139)
(-0.276294 4.70178 0.291022)
(-0.68366 4.53551 0.593927)
(-1.07934 3.9111 0.889973)
(-0.742372 3.64523 0.97864)
(-0.267626 3.4997 0.863345)
(0.163527 3.27813 0.568979)
(0.684292 3.19461 0.315035)
(0.851382 1.8255 0.296792)
(1.76437 1.37603 0.415566)
(2.54709 2.11062 0.346014)
(3.00179 -0.158904 -1.08264)
(3.18654 -2.30489 -1.3063)
(2.73769 -2.72236 -0.649163)
(2.40226 -2.24626 0.0997533)
(2.54295 -1.91911 0.289741)
(2.89955 -1.95593 0.391835)
(3.51841 -1.88434 0.181826)
(4.29151 -1.75041 -0.362427)
(4.58522 -1.86506 -0.41847)
(4.43528 -2.18514 -0.273322)
(4.65826 -2.30941 -0.394094)
(1.19265 -0.396045 -0.0481989)
(1.45775 -1.13979 0.109468)
(0.928555 -0.278604 0.339354)
(1.30335 2.38296 0.487174)
(-0.295671 4.15595 0.491742)
(-0.632856 4.15066 0.761101)
(-0.934007 3.58002 1.05945)
(-0.759005 3.16954 1.17209)
(-0.460544 2.81069 1.06149)
(-0.142627 2.39439 0.733638)
(0.474074 2.471 0.39221)
(0.156956 0.242874 0.303471)
(1.21683 0.109659 0.244016)
(2.34479 1.22866 -0.0867102)
(2.9792 -0.68879 -1.48946)
(3.27856 -2.21276 -1.54884)
(2.94608 -2.57267 -0.937628)
(2.52814 -2.10114 -0.00125892)
(2.55226 -1.61552 0.55202)
(2.84419 -1.57307 0.769231)
(3.2255 -1.47524 0.646687)
(3.97791 -1.13418 0.0772075)
(4.58235 -1.10084 -0.170771)
(4.55215 -1.54677 -0.126862)
(4.85599 -1.86989 -0.307118)
(1.16595 -0.504728 -0.0593953)
(1.22876 -1.42784 0.104171)
(0.489972 -0.609912 0.649464)
(1.54614 1.66676 0.595934)
(-0.539887 3.50552 0.532848)
(-0.926271 3.4716 0.771112)
(-1.04236 2.93095 1.07509)
(-0.893397 2.42465 1.19111)
(-0.65532 2.05451 1.05088)
(-0.332427 1.52398 0.710905)
(0.444093 1.62921 0.331609)
(1.02247 -0.234735 0.130312)
(1.66631 -0.650665 -0.0986467)
(1.49691 0.266 -1.15444)
(2.83536 -0.884248 -1.66517)
(3.23347 -1.87261 -1.64596)
(3.07456 -2.24387 -1.21715)
(2.67339 -1.95507 -0.292303)
(2.55564 -1.4393 0.661634)
(2.77651 -1.29372 1.11976)
(2.91203 -1.16065 1.13178)
(3.43919 -0.717253 0.691137)
(4.26919 -0.504581 0.360825)
(4.59386 -0.882295 0.192437)
(4.93848 -1.36547 -0.095254)
(1.15144 -0.506819 -0.0868522)
(1.08028 -1.68707 0.0324192)
(0.380169 -1.04299 0.607242)
(1.01558 1.21629 0.69911)
(-0.671431 3.03172 0.492194)
(-1.16423 2.71538 0.635955)
(-1.20575 2.13254 0.915087)
(-0.992779 1.57248 1.029)
(-0.705687 1.1822 0.861124)
(-0.260892 0.573407 0.556414)
(0.564717 0.734727 0.403895)
(1.52657 -0.64965 -0.141382)
(1.76628 -1.0031 -0.552807)
(1.78418 -0.124397 -1.18785)
(2.94433 -0.806961 -1.44724)
(3.08488 -1.33556 -1.5689)
(3.12499 -1.64764 -1.31421)
(2.79061 -1.5435 -0.584594)
(2.59059 -1.19472 0.56098)
(2.74114 -1.04014 1.26643)
(2.72074 -0.858045 1.41001)
(2.88515 -0.514233 1.30784)
(3.64204 -0.292105 1.19004)
(4.27161 -0.459167 0.800927)
(4.81472 -0.892088 0.315601)
(1.21552 -0.523014 -0.121979)
(1.08822 -1.67169 -0.158647)
(0.165361 -1.47311 0.50699)
(-0.142202 0.659545 0.805905)
(-0.484175 2.44914 0.58647)
(-1.06138 2.08708 0.613112)
(-1.15161 1.44686 0.805651)
(-0.998683 0.855187 0.865462)
(-0.741585 0.307374 0.642272)
(0.0276792 -0.646279 -0.0653156)
(1.44713 -0.971346 -0.205361)
(1.06634 -0.295901 -0.337996)
(1.57758 -0.743056 -0.929981)
(1.90352 -0.166171 -1.25519)
(2.87916 -0.761605 -1.33312)
(3.07373 -0.918981 -1.46185)
(3.33811 -1.06399 -1.25948)
(2.83381 -0.917782 -0.632949)
(2.63025 -0.722108 0.478929)
(2.78171 -0.741443 1.25858)
(2.76145 -0.531863 1.37636)
(2.8481 -0.386926 1.4598)
(3.18278 -0.471629 1.76972)
(3.7063 -0.507029 1.51871)
(4.20404 -0.610941 0.922058)
(1.20862 -0.3861 -0.0243023)
(0.669228 -1.10213 -0.604507)
(-0.311653 -1.29831 0.354262)
(-2.48683 -0.0778566 0.836928)
(-1.86742 1.04325 0.768503)
(-1.96162 0.868418 0.715425)
(-1.87387 0.179913 0.732457)
(-1.62001 -0.513905 0.563785)
(-1.15466 -0.966993 0.0871078)
(0.00748015 -1.22953 -1.11496)
(0.982966 -0.221618 -0.953807)
(1.38851 -0.136084 -0.44921)
(1.84817 -0.551167 -0.825811)
(1.80263 0.417114 -1.24545)
(2.67139 -0.143125 -1.32406)
(2.95572 -0.292479 -1.36903)
(3.49758 -0.422933 -1.33515)
(3.09468 -0.270466 -0.908546)
(2.87008 -0.273516 0.2478)
(2.81226 -0.455807 1.00532)
(2.77159 -0.354048 1.1726)
(3.02664 -0.310274 1.05821)
(3.14596 -0.401837 1.18301)
(3.31586 -0.349536 1.3728)
(3.45305 -0.144675 1.28944)
(0.767533 -0.176114 0.0676269)
(-0.505548 -0.573763 -0.379475)
(-1.22099 -0.885933 0.0269324)
(-3.51907 -0.767343 0.619565)
(-3.90726 -0.479421 0.65158)
(-3.27678 -0.470359 0.479728)
(-2.66803 -0.618026 0.202354)
(-2.04164 -0.552358 -0.307551)
(-1.17785 -0.231309 -1.00532)
(-0.532646 0.219643 -1.37169)
(0.0506953 0.696562 -0.593194)
(0.949666 0.674408 -0.446078)
(1.52638 0.641818 -0.45988)
(1.45387 0.812406 -0.502004)
(2.79451 0.600259 -0.764911)
(2.8937 0.62663 -0.674502)
(3.07998 0.640017 -0.57081)
(2.78449 0.645797 -0.344091)
(2.54278 0.390452 0.058924)
(2.58809 -0.0481417 0.378345)
(2.13541 -0.161596 0.447085)
(2.31037 -0.222593 0.352216)
(2.20055 -0.408602 0.0163405)
(2.19432 -0.294935 0.0723206)
(2.11679 0.195794 0.964108)
(1.08341 0.0088791 0.577284)
(1.7853 -0.0990007 1.0783)
(0.57154 0.336377 1.2122)
(-1.22523 0.633622 1.06013)
(-2.07504 0.577009 0.719464)
(-2.2044 0.402231 0.281471)
(-1.56964 0.244035 0.470147)
(-0.370793 0.0286264 0.569218)
(0.755322 -0.154603 1.02617)
(2.13424 -0.476021 1.52622)
(3.26762 -0.760969 1.67761)
(4.00461 -0.853036 1.69291)
(4.26605 -0.710785 1.72487)
(3.94112 -0.411502 1.77382)
(3.05686 -0.0741935 1.62143)
(2.01304 0.163598 1.00982)
(0.855985 0.538768 0.235842)
(0.581245 0.668925 -0.635381)
(1.03398 0.342786 -1.36335)
(1.88933 -0.105424 -1.81844)
(2.78057 -0.375554 -1.97357)
(3.62184 -0.450181 -1.94592)
(4.40295 -0.493012 -1.75345)
(5.11425 -0.525966 -1.37837)
(5.69181 -0.390255 -0.727592)
(1.211 -0.0528237 0.556924)
(1.42858 0.146414 1.35607)
(-1.33409 1.13273 1.61292)
(-1.71831 1.74573 0.982658)
(-1.09283 1.82606 -2.16392)
(-0.557093 1.50129 -3.96975)
(0.502103 1.22522 -4.31378)
(1.68515 1.03168 -4.13241)
(2.69379 0.853672 -3.70875)
(3.4041 0.68692 -2.96248)
(3.77487 0.59239 -1.9493)
(3.98768 0.612607 -0.780429)
(4.16676 0.769006 0.0434599)
(4.18052 0.952823 0.387998)
(3.74905 1.10664 0.377552)
(2.95477 1.24356 0.15909)
(2.21338 1.25059 -0.0471285)
(1.59304 0.90798 -0.316729)
(1.78711 0.40394 -0.55622)
(2.6469 0.247318 -0.666221)
(3.52289 0.177261 -0.56185)
(4.2791 -0.0241762 -0.375646)
(4.7839 -0.348995 -0.168828)
(5.32351 -0.607529 0.112888)
(5.52522 -0.569876 0.516057)
(1.29449 0.0120042 0.664137)
(1.34089 0.36108 1.2356)
(-1.09016 1.51375 1.59288)
(-0.7402 2.21962 0.814765)
(0.164518 2.60521 -3.14051)
(0.649432 2.23999 -5.05216)
(1.48943 1.90368 -5.46907)
(2.37309 1.65103 -5.38831)
(3.02546 1.43625 -5.02467)
(3.339 1.32473 -4.54124)
(3.44945 1.30806 -4.07805)
(3.62831 1.4496 -3.52828)
(3.89223 1.67164 -2.76921)
(4.02366 1.93302 -1.8465)
(3.80454 2.10982 -0.720267)
(3.31691 2.11587 0.209714)
(2.9234 1.69555 0.584338)
(2.50561 1.02021 0.595959)
(3.36726 0.27322 0.39996)
(4.35486 -0.549815 0.677923)
(4.98433 -1.09772 0.837602)
(5.20339 -1.33475 0.832445)
(4.92253 -1.5861 0.838837)
(4.83163 -1.87081 0.972502)
(4.55727 -1.56567 1.09861)
(1.25778 0.0745608 0.656735)
(1.49837 0.37759 1.09042)
(-0.509454 1.52093 1.29994)
(-0.0491344 2.39266 0.752971)
(0.689679 3.00052 -2.65775)
(0.870397 2.75793 -4.22824)
(1.50006 2.46906 -4.62752)
(2.30722 2.14897 -4.63647)
(2.89065 1.92648 -4.59207)
(3.13539 1.83602 -4.40884)
(3.30256 1.70179 -4.21909)
(3.60624 1.83474 -4.10917)
(3.86988 2.28964 -3.6046)
(3.87607 2.6468 -2.43972)
(3.68156 2.74868 -0.652787)
(3.43653 2.43418 0.572645)
(3.09357 1.75481 0.90416)
(3.10502 0.931844 0.442015)
(4.25033 -0.453759 0.874289)
(4.99738 -1.5014 1.47551)
(5.17156 -1.85862 1.64938)
(4.76053 -1.71898 1.52981)
(4.00154 -1.88254 1.40533)
(3.53524 -2.3151 1.45197)
(3.2001 -1.80639 1.43737)
(1.18149 0.122671 0.664058)
(1.78534 0.382107 1.07365)
(0.114504 1.47722 1.11582)
(0.243771 2.47987 0.826108)
(0.805861 3.2024 -1.83887)
(0.734769 3.07177 -3.09564)
(1.30931 2.82168 -3.58354)
(2.09615 2.4577 -3.76954)
(2.76715 2.23209 -3.9764)
(3.08835 2.10771 -3.94258)
(3.34382 1.8321 -3.69366)
(3.62612 1.98457 -3.53902)
(3.82422 2.64559 -3.15504)
(3.77273 3.06006 -2.01291)
(3.7027 3.01332 -0.243722)
(3.57101 2.46855 0.773009)
(2.95637 1.65502 0.820448)
(3.31812 0.340029 0.50957)
(4.37359 -1.30471 1.38534)
(4.91834 -2.24973 2.05581)
(4.69388 -2.46596 2.2321)
(3.85875 -2.15757 2.03852)
(3.16126 -2.33573 1.77827)
(2.43345 -2.87409 1.65064)
(2.17501 -1.98124 1.33923)
(1.11574 0.148717 0.67788)
(1.90566 0.37796 1.08245)
(0.632267 1.44383 1.02938)
(0.333898 2.54535 0.980677)
(0.773274 3.28574 -1.15766)
(0.595568 3.2429 -2.20114)
(1.13451 3.04042 -2.75006)
(1.88046 2.64222 -3.09822)
(2.64978 2.47495 -3.30793)
(3.05465 2.34984 -3.33973)
(3.30598 1.96361 -3.15386)
(3.48955 2.11443 -2.89461)
(3.76971 2.83779 -2.36491)
(3.89089 3.22433 -1.22077)
(3.82577 3.05477 0.0771928)
(3.5059 2.55671 0.724199)
(2.67573 1.66861 0.356398)
(3.19268 -0.309311 0.932539)
(4.3873 -2.01828 1.7249)
(5.04026 -2.93403 2.32013)
(4.75923 -3.10117 2.56585)
(3.81122 -2.79085 2.41451)
(3.32134 -2.87746 2.07566)
(2.56341 -3.1956 1.67627)
(2.18517 -1.83935 0.501442)
(1.07042 0.162239 0.687167)
(1.92713 0.366271 1.10233)
(0.956173 1.44643 0.994532)
(0.342049 2.6495 1.16046)
(0.720924 3.31048 -0.617199)
(0.537342 3.33662 -1.50487)
(0.994591 3.18203 -1.95131)
(1.65429 2.76484 -2.3521)
(2.39776 2.65589 -2.53515)
(2.89131 2.60022 -2.6145)
(3.12043 2.19918 -2.74817)
(3.23666 2.31918 -2.52056)
(3.76988 2.94464 -1.59298)
(4.03512 3.25774 -0.444883)
(3.88694 3.12519 0.179403)
(3.34138 2.62292 0.60957)
(2.16045 1.3954 0.692311)
(2.97239 -0.861897 1.35882)
(4.44063 -2.57632 1.57761)
(5.20942 -3.51257 2.09107)
(5.00564 -3.69352 2.5644)
(4.19372 -3.3896 2.64193)
(3.4364 -3.2889 2.3538)
(2.74828 -3.20228 1.79205)
(1.06727 -1.8037 0.951274)
(1.02954 0.176833 0.663948)
(1.83484 0.367169 1.13315)
(1.21722 1.44518 1.01705)
(0.438039 2.74953 1.23545)
(0.730654 3.31278 -0.194812)
(0.547593 3.34725 -0.962012)
(0.882265 3.18742 -1.22779)
(1.45108 2.80138 -1.51035)
(2.07488 2.74255 -1.77185)
(2.60774 2.78979 -1.93331)
(2.84952 2.49739 -2.47583)
(3.01757 2.59053 -2.29499)
(3.76156 3.00378 -1.0182)
(4.02139 3.21418 0.0128079)
(3.80446 3.44221 0.127192)
(2.92145 2.67168 0.620431)
(1.67523 1.13181 1.35418)
(2.74945 -1.16971 1.38158)
(4.26285 -2.86191 0.937407)
(5.00864 -3.95931 1.54836)
(4.83262 -4.30165 2.37802)
(4.16094 -3.95471 2.73556)
(3.30096 -3.6358 2.57111)
(2.6411 -3.33529 2.02895)
(2.14455 -1.64563 0.489845)
(0.940922 0.194637 0.604017)
(1.80165 0.296108 1.1171)
(1.5406 1.36078 1.06856)
(0.6067 2.8333 1.22916)
(0.77993 3.3198 0.112977)
(0.541485 3.28213 -0.5624)
(0.739602 3.03465 -0.648926)
(1.2728 2.69962 -0.735853)
(1.79726 2.74711 -1.14074)
(2.27654 2.90489 -1.41623)
(2.5733 2.81202 -2.22956)
(2.88904 2.87384 -2.05654)
(3.74496 3.05705 -0.650605)
(3.86307 3.3882 0.227307)
(3.31523 3.9344 0.251328)
(1.72159 3.57438 1.27482)
(1.28026 0.854407 2.03448)
(2.68293 -1.27529 1.1433)
(3.90634 -3.12478 0.0186393)
(4.59351 -4.37224 0.729504)
(4.37032 -4.85179 1.91844)
(3.71441 -4.47467 2.60823)
(2.93637 -3.95084 2.66979)
(2.33678 -3.50566 2.27119)
(1.13124 -1.77288 1.06445)
(0.869423 0.187358 0.557882)
(1.72989 0.220401 1.11167)
(1.77797 1.25543 1.12234)
(0.800154 2.90972 1.21333)
(0.817753 3.37571 0.342941)
(0.483725 3.19415 -0.246193)
(0.558256 2.76167 -0.218288)
(1.07354 2.46139 -0.262021)
(1.54334 2.72752 -0.727442)
(1.95115 2.99895 -1.04042)
(2.34817 3.08894 -1.90591)
(2.80973 3.14188 -1.774)
(3.73623 3.2596 -0.373111)
(3.55132 3.80737 0.43235)
(2.77162 4.27001 0.448812)
(1.37528 3.19839 1.96301)
(1.35741 0.194188 2.2759)
(2.75668 -1.3818 0.834896)
(3.57099 -3.42527 -0.76476)
(4.07111 -4.80304 -0.297891)
(3.73527 -5.30559 1.12087)
(3.00145 -4.90819 2.18399)
(2.42533 -4.304 2.61583)
(1.97143 -3.634 2.45343)
(0.726477 -1.85032 1.29595)
(0.821212 0.188676 0.519717)
(1.58071 0.0877676 1.14481)
(1.8555 1.14406 1.16127)
(0.956165 2.97272 1.19099)
(0.798463 3.45971 0.53721)
(0.445306 3.11039 0.0979098)
(0.390043 2.45928 0.0822746)
(0.812741 2.21343 -0.113976)
(1.25418 2.73956 -0.478254)
(1.64496 3.0787 -0.732378)
(2.16816 3.27995 -1.51856)
(2.75247 3.37839 -1.44738)
(3.71513 3.52941 -0.0725676)
(3.22566 4.17187 0.661792)
(2.31113 4.55355 0.491789)
(1.42354 2.92937 2.4022)
(1.66705 -0.295493 2.09828)
(2.89604 -1.45577 0.570783)
(3.44298 -3.49074 -1.34476)
(3.59918 -5.12269 -1.31083)
(3.08861 -5.61697 0.0381383)
(2.2272 -5.22162 1.41608)
(1.82003 -4.61091 2.37298)
(1.30379 -3.67844 2.46239)
(0.170995 -1.66097 1.29414)
(0.782285 0.219105 0.474381)
(1.52458 -0.0595457 1.18009)
(1.87332 0.81297 1.09636)
(1.05571 3.01582 1.13599)
(0.748095 3.5114 0.72547)
(0.514373 2.97465 0.486519)
(0.291118 2.1953 0.296279)
(0.512556 2.05408 -0.0896833)
(0.937657 2.76951 -0.261067)
(1.37814 3.10901 -0.434751)
(2.00446 3.3727 -1.11837)
(2.71573 3.56955 -1.05985)
(3.67424 3.81634 0.247401)
(2.86935 4.58864 0.807486)
(1.89918 4.9257 0.899351)
(1.86125 2.25823 2.53806)
(2.08461 -0.790487 1.76243)
(3.04199 -1.56069 0.348992)
(3.55994 -3.2531 -1.6523)
(3.27532 -5.11334 -2.03699)
(2.6335 -5.69396 -1.08946)
(1.58691 -5.32785 0.429783)
(1.27972 -4.77033 1.96875)
(0.558227 -3.60372 2.24502)
(-0.40614 -1.35252 1.17834)
(0.768273 0.256958 0.405977)
(1.54155 -0.154677 1.08693)
(1.70063 0.685524 1.04908)
(1.19968 2.94015 1.10394)
(0.833204 3.49846 0.898804)
(0.691823 2.77127 0.754484)
(0.218254 2.00152 0.350065)
(0.22272 2.00545 -0.130305)
(0.62094 2.7905 -0.0720755)
(1.16026 3.09131 -0.145299)
(1.85665 3.39768 -0.726758)
(2.70124 3.76036 -0.62748)
(3.53927 4.12771 0.550992)
(2.65854 5.11973 0.991099)
(1.96971 4.8071 1.15245)
(2.47796 1.73785 2.37642)
(2.56825 -1.09942 1.36095)
(3.19176 -1.72419 0.087591)
(3.7807 -2.80672 -1.65265)
(3.33787 -4.69946 -2.46816)
(2.46906 -5.46531 -1.92629)
(1.31398 -5.16843 -0.58743)
(0.878215 -4.69012 1.41869)
(-0.0823122 -3.33297 1.92566)
(-0.743361 -0.852836 0.80236)
(0.774391 0.286862 0.309527)
(1.5919 -0.294539 0.804988)
(1.92707 0.319574 1.49478)
(1.52425 2.56744 1.26351)
(1.05171 3.42752 0.962944)
(0.751051 2.66105 0.747585)
(0.00734753 1.89932 0.200483)
(-0.0424179 2.0992 -0.179427)
(0.325517 2.82786 0.0578732)
(0.96958 3.15101 0.10856)
(1.75359 3.48839 -0.328045)
(2.70238 3.96942 -0.19999)
(3.37126 4.42421 0.835405)
(2.67957 5.39081 1.26089)
(2.43616 4.61738 1.22803)
(3.10408 1.37805 2.13654)
(3.11046 -1.23582 1.01217)
(3.36929 -1.88761 -0.253542)
(3.948 -2.33319 -1.47082)
(3.64324 -3.9866 -2.60914)
(2.52356 -4.99208 -2.4248)
(1.42685 -4.80467 -1.46456)
(0.696885 -4.37601 0.707293)
(-0.537458 -3.00966 1.59736)
(-0.56888 -0.555037 0.569873)
(0.794356 0.296082 0.246442)
(1.67162 -0.627656 0.579941)
(2.53877 -0.210697 1.70937)
(1.94778 2.20703 1.49643)
(1.23595 3.4991 0.968625)
(0.400847 2.57289 0.487407)
(-0.556992 1.83894 -0.0998748)
(-0.345277 2.22758 -0.221691)
(0.0589312 2.88172 0.15822)
(0.790948 3.30185 0.321328)
(1.68035 3.66293 0.0571163)
(2.71312 4.16555 0.210641)
(3.3067 4.66487 1.09379)
(2.91373 5.50168 1.51807)
(3.17149 4.25726 1.3541)
(3.69343 1.1601 1.83802)
(3.56463 -1.18883 0.704169)
(3.55301 -1.92716 -0.585041)
(3.9628 -1.96587 -1.34701)
(3.93858 -3.13687 -2.52186)
(2.84549 -4.29511 -2.78025)
(1.62121 -4.34389 -2.032)
(0.793854 -3.92281 -0.15622)
(-0.757178 -2.76714 1.12126)
(-0.20477 -0.476164 0.659124)
(0.968412 0.261148 0.169274)
(1.79031 -1.10074 0.593447)
(3.06068 -0.667181 1.81074)
(2.36542 1.9458 1.62698)
(1.49791 3.78136 1.08006)
(0.143409 2.87204 0.336261)
(-1.2633 1.89655 -0.418624)
(-0.818997 2.31628 -0.30752)
(-0.189243 2.94876 0.270906)
(0.628701 3.49659 0.51782)
(1.62567 3.88191 0.435532)
(2.6663 4.29319 0.5671)
(3.39048 4.75835 1.34622)
(3.47675 5.49573 1.7403)
(4.00984 4.08177 1.21511)
(4.22845 1.25183 1.57016)
(3.90195 -0.914697 0.507128)
(3.73357 -1.77074 -0.790497)
(3.8936 -1.73767 -1.40599)
(4.11901 -2.34991 -2.31189)
(3.32493 -3.40591 -2.96982)
(1.92991 -3.73454 -2.46389)
(1.18174 -3.45924 -1.08496)
(-0.702038 -3.10855 0.448483)
(3.29809 -1.65389 -0.316989)
(1.19927 0.0184492 0.112694)
(1.89784 -1.67143 0.77217)
(3.16377 -0.983337 1.9525)
(2.53708 1.53656 1.78119)
(1.85398 3.94668 1.31582)
(0.444364 3.49086 0.462724)
(-1.59892 2.15324 -0.408026)
(-1.33418 2.49082 -0.305854)
(-0.459024 3.14646 0.416487)
(0.464672 3.74455 0.755636)
(1.5451 4.12159 0.80892)
(2.54958 4.31972 0.899335)
(3.48737 4.63138 1.53542)
(4.01315 5.29963 1.69985)
(4.67311 4.14859 1.03945)
(4.68565 1.58254 1.38094)
(4.1699 -0.452314 0.476485)
(3.91902 -1.42917 -0.831642)
(3.90628 -1.55205 -1.5917)
(4.20006 -1.76911 -2.14197)
(3.89683 -2.45432 -2.94968)
(2.54108 -2.96249 -2.80018)
(1.68135 -2.93574 -1.78564)
(-0.252467 -3.02138 -0.292525)
(-1.49546 -1.53817 0.333784)