/*--------------------------------*- C++ -*----------------------------------*\
| =========                 |                                                 |
| \\      /  F ield         | OpenFOAM: The Open Source CFD Toolbox           |
|  \\    /   O peration     | Version:  2306                                  |
|   \\  /    A nd           | Website:  www.openfoam.com                      |
|    \\/     M anipulation  |                                                 |
\*---------------------------------------------------------------------------*/
FoamFile
{
    version     2.0;
    format      ascii;
    arch        "LSB;label=32;scalar=64";
    class       volScalarField;
    location    "4.3";
    object      p;
}
// * * * * * * * * * * * * * * * * * * * * * * * * * * * * * * * * * * * * * //

dimensions      [0 2 -2 0 0 0 0];

internalField   nonuniform List<scalar> 
288632
(
65.7283
65.72
65.7323
65.7571
65.7913
65.832
65.8853
65.926
65.9963
66.02
66.0984
66.1141
66.1459
-2.30347
-2.17687
-2.17744
-1.90142
-1.79653
-1.54635
-1.33559
-1.10278
-0.861949
-0.617351
-0.371035
-0.123859
65.7215
65.7186
65.7318
65.7567
65.791
65.8318
65.8853
65.9263
65.9966
66.0209
66.0988
66.1141
66.1467
-2.30418
-2.17774
-2.17891
-1.90258
-1.7977
-1.54743
-1.3365
-1.10353
-0.862544
-0.617781
-0.371294
-0.123946
65.7194
65.7173
65.7308
65.7558
65.7903
65.8313
65.885
65.9265
65.997
66.0225
66.1002
66.1156
66.1489
-2.30662
-2.18068
-2.18189
-1.90518
-1.80017
-1.54959
-1.33836
-1.10508
-0.863766
-0.61866
-0.371824
-0.124124
65.7159
65.7152
65.7292
65.7545
65.7891
65.8304
65.8843
65.9266
65.9975
66.0247
66.1019
66.1185
66.152
-2.3107
-2.18491
-2.1863
-1.90905
-1.80386
-1.55279
-1.34115
-1.1074
-0.865593
-0.619976
-0.372618
-0.12439
65.7131
65.7129
65.7273
65.7527
65.7876
65.8292
65.8834
65.9267
65.9981
66.0274
66.1042
66.1221
66.1561
-2.31632
-2.19065
-2.1921
-1.91418
-1.80874
-1.557
-1.34483
-1.11046
-0.867999
-0.62171
-0.373665
-0.124741
65.7102
65.7104
65.7251
65.7507
65.7858
65.8278
65.8823
65.9267
65.9989
66.0305
66.1073
66.1267
66.1611
-2.32336
-2.19766
-2.19916
-1.92046
-1.81471
-1.56215
-1.34933
-1.11421
-0.870954
-0.623839
-0.374951
-0.125172
65.7073
65.7077
65.7225
65.7483
65.7836
65.826
65.8809
65.9267
65.9998
66.0342
66.1111
66.1323
66.1672
-2.33169
-2.2059
-2.2074
-1.92781
-1.82168
-1.56818
-1.3546
-1.11861
-0.874414
-0.626333
-0.376457
-0.125677
65.7044
65.7049
65.7198
65.7457
65.7812
65.8241
65.8794
65.9267
66.0008
66.0384
66.1157
66.139
66.1744
-2.34117
-2.21518
-2.21666
-1.9361
-1.82955
-1.57499
-1.36056
-1.12358
-0.878331
-0.629159
-0.378164
-0.12625
65.7014
65.702
65.7169
65.7429
65.7785
65.8219
65.8777
65.9267
66.0021
66.0431
66.1212
66.1467
66.1829
-2.35163
-2.22537
-2.2268
-1.94522
-1.83819
-1.58248
-1.36712
-1.12905
-0.882649
-0.632274
-0.380047
-0.126882
65.6984
65.699
65.7139
65.7399
65.7757
65.8196
65.8759
65.9267
66.0035
66.0483
66.1277
66.1557
66.1928
-2.36287
-2.23629
-2.23766
-1.955
-1.84747
-1.59054
-1.37419
-1.13495
-0.887303
-0.635634
-0.382078
-0.127564
65.6954
65.696
65.7109
65.7368
65.7728
65.8171
65.8741
65.9267
66.0053
66.0541
66.1352
66.166
66.2041
-2.37473
-2.24777
-2.24906
-1.96529
-1.85725
-1.59903
-1.38164
-1.14119
-0.892225
-0.639188
-0.384228
-0.128285
65.6924
65.693
65.7078
65.7337
65.7698
65.8146
65.8722
65.9269
66.0073
66.0605
66.1439
66.1776
66.2172
-2.38699
-2.25959
-2.26082
-1.97593
-1.86736
-1.60783
-1.38937
-1.14766
-0.897338
-0.642884
-0.386464
-0.129036
65.6896
65.69
65.7047
65.7306
65.7668
65.812
65.8704
65.9271
66.0096
66.0675
66.1537
66.1908
66.2319
-2.39945
-2.27159
-2.27274
-1.98675
-1.87765
-1.6168
-1.39726
-1.15427
-0.902564
-0.646662
-0.388752
-0.129805
65.6868
65.6872
65.7017
65.7275
65.7638
65.8094
65.8687
65.9276
66.0123
66.0751
66.1647
66.2054
66.2484
-2.41191
-2.28355
-2.28464
-1.99756
-1.88795
-1.6258
-1.40518
-1.16091
-0.90782
-0.650465
-0.391054
-0.130579
65.6842
65.6845
65.6988
65.7246
65.7609
65.807
65.867
65.9281
66.0153
66.0833
66.1769
66.2213
66.2667
-2.42418
-2.29529
-2.29631
-2.00821
-1.8981
-1.63467
-1.41301
-1.16747
-0.913021
-0.65423
-0.393335
-0.131346
65.6818
65.6819
65.6961
65.7217
65.7581
65.8046
65.8655
65.9289
66.0185
66.0919
66.1901
66.2385
66.2864
-2.43605
-2.30663
-2.30758
-2.01851
-1.90793
-1.64328
-1.42061
-1.17386
-0.918083
-0.657896
-0.395558
-0.132094
65.6797
65.6797
65.6937
65.7191
65.7555
65.8024
65.8642
65.9298
66.022
66.1008
66.204
66.2567
66.3074
-2.44734
-2.31739
-2.31828
-2.02831
-1.91729
-1.65149
-1.42786
-1.17996
-0.922922
-0.661403
-0.397684
-0.132809
65.678
65.6777
65.6915
65.7167
65.7531
65.8004
65.863
65.9309
66.0256
66.1098
66.2184
66.2754
66.3293
-2.45789
-2.3274
-2.32822
-2.03745
-1.92603
-1.65917
-1.43465
-1.18567
-0.927457
-0.664692
-0.399679
-0.133481
65.6766
65.6761
65.6895
65.7146
65.751
65.7986
65.8621
65.932
66.0293
66.1186
66.2327
66.294
66.3513
-2.46753
-2.33653
-2.33727
-2.04579
-1.934
-1.66618
-1.44086
-1.1909
-0.931613
-0.667706
-0.401508
-0.134097
65.6756
65.6748
65.6879
65.7128
65.7491
65.797
65.8613
65.9332
66.0328
66.1269
66.2465
66.3121
66.3729
-2.47613
-2.34461
-2.34527
-2.0532
-1.94108
-1.67242
-1.44639
-1.19556
-0.935318
-0.670395
-0.40314
-0.134647
65.6753
65.6738
65.6866
65.7113
65.7476
65.7957
65.8606
65.9343
66.036
66.1345
66.2592
66.3288
66.393
-2.48358
-2.35159
-2.35212
-2.05957
-1.94717
-1.67778
-1.45115
-1.19958
-0.938509
-0.672712
-0.404547
-0.135121
65.6751
65.6732
65.6856
65.7101
65.7463
65.7947
65.8602
65.9353
66.0388
66.1409
66.2701
66.3435
66.4108
-2.48977
-2.35731
-2.35771
-2.06479
-1.95215
-1.68218
-1.45505
-1.20287
-0.941131
-0.674617
-0.405703
-0.13551
65.6774
65.6732
65.6849
65.7092
65.7454
65.794
65.8598
65.9362
66.0411
66.1461
66.2788
66.3555
66.4254
-2.49463
-2.3618
-2.36197
-2.06882
-1.95597
-1.68554
-1.45804
-1.2054
-0.94314
-0.676076
-0.406589
-0.135809
65.6769
65.6728
65.6843
65.7086
65.7448
65.7934
65.8596
65.9368
66.0427
66.1496
66.2846
66.3642
66.4362
-2.49808
-2.36472
-2.36483
-2.07153
-1.95856
-1.68779
-1.46007
-1.20711
-0.9445
-0.677064
-0.407189
-0.13601
65.6832
65.6736
65.6842
65.7085
65.7446
65.7933
65.8596
65.9371
66.0436
66.1516
66.2879
66.3684
66.4425
-2.50003
-2.36674
-2.36626
-2.073
-1.95991
-1.68891
-1.46111
-1.20798
-0.945192
-0.677565
-0.407492
-0.136111
65.7197
65.7167
65.7298
65.7547
65.7888
65.8295
65.8828
65.9235
65.9936
66.0176
66.0954
66.1114
66.1444
-2.31039
-2.18459
-2.18484
-1.90723
-1.80098
-1.54989
-1.33784
-1.10412
-0.862687
-0.617686
-0.371145
-0.123866
65.7129
65.715
65.7293
65.7543
65.7886
65.8293
65.8828
65.9238
65.9939
66.0193
66.0938
66.1115
66.1456
-2.31106
-2.18549
-2.18635
-1.90841
-1.80217
-1.55099
-1.33876
-1.10489
-0.863292
-0.618122
-0.371409
-0.123955
65.7109
65.7137
65.7284
65.7533
65.7878
65.8288
65.8824
65.924
65.9942
66.021
66.0948
66.113
66.1479
-2.31354
-2.18848
-2.18939
-1.91106
-1.80469
-1.55318
-1.34065
-1.10646
-0.864532
-0.619015
-0.371947
-0.124136
65.7076
65.7115
65.7268
65.752
65.7866
65.8279
65.8817
65.924
65.9947
66.0232
66.0962
66.1157
66.1511
-2.31768
-2.19279
-2.19388
-1.915
-1.80845
-1.55644
-1.34349
-1.10882
-0.866387
-0.62035
-0.372753
-0.124406
65.7049
65.7092
65.7248
65.7502
65.7851
65.8266
65.8807
65.924
65.9952
66.0258
66.0983
66.1194
66.1551
-2.32339
-2.19864
-2.19979
-1.92022
-1.81341
-1.56072
-1.34722
-1.11193
-0.86883
-0.62211
-0.373815
-0.124762
65.702
65.7068
65.7225
65.7481
65.7832
65.8251
65.8795
65.9239
65.9958
66.0288
66.1012
66.1239
66.1601
-2.33053
-2.20577
-2.20698
-1.92661
-1.81948
-1.56596
-1.3518
-1.11574
-0.87183
-0.624272
-0.37512
-0.1252
65.6989
65.7042
65.72
65.7457
65.781
65.8233
65.878
65.9238
65.9965
66.0322
66.1049
66.1295
66.1661
-2.33898
-2.21417
-2.21537
-1.93409
-1.82657
-1.57209
-1.35715
-1.1202
-0.875345
-0.626805
-0.376651
-0.125713
65.696
65.7014
65.7172
65.7431
65.7785
65.8212
65.8764
65.9236
65.9974
66.0362
66.1092
66.136
66.1733
-2.34859
-2.22361
-2.2248
-1.94253
-1.83458
-1.57902
-1.36321
-1.12525
-0.879325
-0.629675
-0.378385
-0.126294
65.693
65.6985
65.7143
65.7402
65.7758
65.819
65.8746
65.9234
65.9984
66.0405
66.1145
66.1436
66.1816
-2.35918
-2.23399
-2.23514
-1.9518
-1.84337
-1.58663
-1.36988
-1.13082
-0.883713
-0.632841
-0.380298
-0.126937
65.69
65.6955
65.7113
65.7372
65.7729
65.8165
65.8726
65.9232
65.9996
66.0453
66.1206
66.1523
66.1913
-2.37059
-2.2451
-2.2462
-1.96176
-1.85282
-1.59483
-1.37706
-1.13682
-0.888445
-0.636256
-0.382363
-0.12763
65.6869
65.6924
65.7082
65.7341
65.7699
65.8139
65.8706
65.9229
66.001
66.0506
66.1276
66.1623
66.2025
-2.3826
-2.25677
-2.25781
-1.97223
-1.86277
-1.60347
-1.38465
-1.14316
-0.893451
-0.639871
-0.384549
-0.128364
65.684
65.6894
65.705
65.7309
65.7668
65.8112
65.8686
65.9228
66.0027
66.0565
66.1356
66.1736
66.2152
-2.39502
-2.2688
-2.26978
-1.98306
-1.87306
-1.61243
-1.39252
-1.14974
-0.898653
-0.64363
-0.386824
-0.129128
65.6811
65.6864
65.7019
65.7277
65.7637
65.8085
65.8665
65.9227
66.0046
66.0629
66.1448
66.1863
66.2296
-2.40764
-2.281
-2.28192
-1.99407
-1.88354
-1.62156
-1.40055
-1.15647
-0.903972
-0.647476
-0.389152
-0.12991
65.6783
65.6836
65.6989
65.7246
65.7606
65.8058
65.8646
65.9228
66.0069
66.0698
66.155
66.2004
66.2457
-2.42026
-2.29316
-2.29402
-2.00507
-1.89403
-1.63072
-1.40861
-1.16323
-0.909322
-0.651346
-0.391496
-0.130699
65.6757
65.6808
65.696
65.7215
65.7575
65.8032
65.8627
65.923
66.0094
66.0772
66.1663
66.2159
66.2635
-2.43268
-2.30509
-2.30591
-2.01591
-1.90436
-1.63976
-1.41658
-1.16992
-0.914619
-0.655181
-0.393819
-0.13148
65.6733
65.6783
65.6933
65.7187
65.7547
65.8006
65.8609
65.9233
66.0122
66.085
66.1785
66.2325
66.2829
-2.44469
-2.31661
-2.31738
-2.02639
-1.91438
-1.64853
-1.42432
-1.17643
-0.919775
-0.658915
-0.396083
-0.132242
65.6712
65.676
65.6908
65.716
65.752
65.7983
65.8593
65.9238
66.0152
66.093
66.1915
66.2501
66.3035
-2.45612
-2.32754
-2.32826
-2.03636
-1.92391
-1.65689
-1.43171
-1.18264
-0.924706
-0.662489
-0.39825
-0.132971
65.6694
65.674
65.6885
65.7135
65.7495
65.7961
65.8579
65.9245
66.0183
66.1011
66.2048
66.2683
66.325
-2.46679
-2.3377
-2.33837
-2.04566
-1.9328
-1.66471
-1.43862
-1.18846
-0.929328
-0.665841
-0.400283
-0.133656
65.668
65.6724
65.6866
65.7114
65.7472
65.7941
65.8567
65.9252
66.0214
66.109
66.2182
66.2864
66.3467
-2.47654
-2.34697
-2.34757
-2.05415
-1.94092
-1.67185
-1.44495
-1.1938
-0.933564
-0.668914
-0.402148
-0.134284
65.6671
65.6711
65.6849
65.7095
65.7453
65.7924
65.8557
65.9261
66.0245
66.1165
66.231
66.304
66.3679
-2.48524
-2.35517
-2.3557
-2.06168
-1.94813
-1.67821
-1.45058
-1.19855
-0.937341
-0.671656
-0.403813
-0.134845
65.6667
65.6701
65.6836
65.7079
65.7437
65.791
65.8548
65.9269
66.0273
66.1233
66.2428
66.3203
66.3877
-2.49276
-2.36225
-2.36267
-2.06816
-1.95433
-1.68367
-1.45543
-1.20264
-0.940595
-0.674018
-0.405248
-0.135329
65.6665
65.6695
65.6825
65.7067
65.7424
65.7899
65.8542
65.9276
66.0298
66.1291
66.253
66.3346
66.4053
-2.49901
-2.36804
-2.36834
-2.07347
-1.9594
-1.68815
-1.45941
-1.206
-0.94327
-0.675961
-0.406427
-0.135726
65.6688
65.6695
65.6818
65.7058
65.7414
65.7891
65.8537
65.9282
66.0318
66.1337
66.2611
66.3463
66.4197
-2.50392
-2.37259
-2.37267
-2.07755
-1.96329
-1.69157
-1.46246
-1.20857
-0.945318
-0.677449
-0.407331
-0.136031
65.6683
65.6692
65.6813
65.7052
65.7408
65.7885
65.8534
65.9287
66.0332
66.1369
66.2663
66.3545
66.4302
-2.5074
-2.37556
-2.37557
-2.08031
-1.96592
-1.69387
-1.46453
-1.21032
-0.946705
-0.678457
-0.407943
-0.136236
65.6745
65.67
65.6811
65.705
65.7405
65.7883
65.8533
65.9289
66.034
66.1388
66.2696
66.3571
66.4361
-2.50937
-2.37759
-2.37702
-2.0818
-1.9673
-1.695
-1.46558
-1.21121
-0.947409
-0.678967
-0.408252
-0.136339
65.7139
65.7115
65.7249
65.7496
65.7837
65.8242
65.8772
65.9181
65.9879
66.0126
66.0897
66.1067
66.1408
-2.32626
-2.2009
-2.19936
-1.91868
-1.80959
-1.5565
-1.34195
-1.10649
-0.863882
-0.618137
-0.371214
-0.123817
65.7073
65.7098
65.7244
65.7492
65.7834
65.824
65.8772
65.9183
65.9881
66.0144
66.0878
66.1067
66.142
-2.32696
-2.20185
-2.20093
-1.91991
-1.81082
-1.55763
-1.3429
-1.10728
-0.864506
-0.618586
-0.371485
-0.123908
65.7054
65.7084
65.7234
65.7483
65.7826
65.8234
65.8767
65.9184
65.9884
66.016
66.0889
66.1081
66.1444
-2.32953
-2.20495
-2.20407
-1.92265
-1.81342
-1.5599
-1.34486
-1.1089
-0.865782
-0.619505
-0.372039
-0.124094
65.7018
65.7063
65.7217
65.7469
65.7814
65.8224
65.8759
65.9183
65.9887
66.018
66.0902
66.1107
66.1475
-2.33381
-2.20942
-2.20874
-1.92673
-1.8173
-1.56326
-1.34778
-1.11133
-0.867691
-0.620879
-0.372868
-0.124372
65.6988
65.7041
65.7198
65.7451
65.7797
65.8211
65.8748
65.9181
65.989
66.0204
66.0921
66.1141
66.1514
-2.33972
-2.21549
-2.21487
-1.93213
-1.82243
-1.56768
-1.35163
-1.11453
-0.870209
-0.622692
-0.373962
-0.124739
65.6958
65.7016
65.7175
65.7429
65.7778
65.8194
65.8735
65.9179
65.9894
66.0231
66.0947
66.1183
66.1561
-2.3471
-2.2229
-2.22233
-1.93874
-1.82871
-1.5731
-1.35635
-1.11846
-0.8733
-0.624918
-0.375306
-0.125189
65.6929
65.6989
65.7149
65.7404
65.7754
65.8175
65.8718
65.9174
65.9898
66.0262
66.0979
66.1235
66.1618
-2.35583
-2.2316
-2.23103
-1.94649
-1.83605
-1.57943
-1.36188
-1.12307
-0.876925
-0.62753
-0.376883
-0.125718
65.6899
65.6961
65.7121
65.7377
65.7729
65.8153
65.8699
65.9169
65.9903
66.0296
66.1016
66.1296
66.1685
-2.36575
-2.24139
-2.24081
-1.95522
-1.84434
-1.58659
-1.36814
-1.12828
-0.881032
-0.63049
-0.378672
-0.126318
65.6868
65.6931
65.7091
65.7348
65.77
65.8128
65.8679
65.9163
65.9908
66.0333
66.1061
66.1365
66.1763
-2.37669
-2.25214
-2.25153
-1.96482
-1.85344
-1.59447
-1.37503
-1.13403
-0.885563
-0.633758
-0.380647
-0.126981
65.6838
65.6901
65.706
65.7317
65.767
65.8101
65.8656
65.9156
65.9914
66.0373
66.1112
66.1443
66.1852
-2.38846
-2.26366
-2.263
-1.97513
-1.86322
-1.60295
-1.38246
-1.14023
-0.890452
-0.637287
-0.38278
-0.127697
65.6808
65.687
65.7029
65.7284
65.7638
65.8073
65.8632
65.9148
65.9922
66.0417
66.117
66.1532
66.1953
-2.40084
-2.27574
-2.27504
-1.98597
-1.87353
-1.6119
-1.39031
-1.14679
-0.895627
-0.641023
-0.38504
-0.128456
65.6778
65.6839
65.6997
65.7251
65.7605
65.8043
65.8608
65.914
65.9931
66.0464
66.1237
66.1631
66.2068
-2.41365
-2.2882
-2.28745
-1.99719
-1.88419
-1.62118
-1.39845
-1.15361
-0.90101
-0.644912
-0.387394
-0.129247
65.6748
65.6809
65.6965
65.7218
65.7572
65.8013
65.8583
65.9133
65.9942
66.0515
66.1313
66.1741
66.2197
-2.42665
-2.30082
-2.30003
-2.00858
-1.89505
-1.63064
-1.40677
-1.16057
-0.906517
-0.648893
-0.389804
-0.130057
65.672
65.6779
65.6934
65.7186
65.7539
65.7983
65.8558
65.9126
65.9955
66.0569
66.1397
66.1862
66.2342
-2.43964
-2.31339
-2.31257
-2.01998
-1.90592
-1.64013
-1.41512
-1.16758
-0.912061
-0.652904
-0.392233
-0.130874
65.6694
65.6752
65.6904
65.7154
65.7507
65.7953
65.8534
65.9119
65.9969
66.0627
66.149
66.1995
66.2501
-2.45241
-2.32573
-2.32488
-2.0312
-1.91664
-1.6495
-1.42338
-1.17452
-0.917553
-0.656879
-0.394641
-0.131685
65.667
65.6726
65.6876
65.7124
65.7476
65.7924
65.8511
65.9114
65.9986
66.0687
66.1591
66.2138
66.2674
-2.46476
-2.33763
-2.33676
-2.04205
-1.92702
-1.6586
-1.43141
-1.18126
-0.922902
-0.660753
-0.39699
-0.132475
65.6648
65.6703
65.685
65.7096
65.7447
65.7897
65.849
65.9111
66.0005
66.075
66.1698
66.2289
66.2859
-2.47649
-2.34891
-2.34801
-2.05237
-1.93691
-1.66727
-1.43908
-1.18772
-0.92802
-0.664462
-0.39924
-0.133233
65.663
65.6682
65.6827
65.707
65.742
65.7872
65.8471
65.9109
66.0026
66.0813
66.1809
66.2444
66.3051
-2.48744
-2.35939
-2.35847
-2.06199
-1.94613
-1.67538
-1.44626
-1.19376
-0.93282
-0.667943
-0.401352
-0.133944
65.6616
65.6665
65.6807
65.7048
65.7396
65.7849
65.8454
65.9108
66.0046
66.0875
66.192
66.26
66.3245
-2.49744
-2.36895
-2.36799
-2.07077
-1.95455
-1.6828
-1.45283
-1.1993
-0.93722
-0.671136
-0.40329
-0.134598
65.6606
65.6652
65.6789
65.7028
65.7375
65.7829
65.8439
65.9109
66.0067
66.0933
66.2027
66.275
66.3435
-2.50636
-2.3774
-2.37639
-2.07856
-1.96203
-1.68939
-1.45868
-1.20424
-0.941146
-0.673986
-0.405021
-0.135181
65.6602
65.6643
65.6776
65.7011
65.7357
65.7813
65.8427
65.911
66.0086
66.0986
66.2125
66.2889
66.3612
-2.51406
-2.38469
-2.38359
-2.08526
-1.96845
-1.69506
-1.46371
-1.20849
-0.944529
-0.676443
-0.406513
-0.135684
65.66
65.6636
65.6765
65.6998
65.7342
65.7799
65.8417
65.9112
66.0103
66.1032
66.2209
66.3011
66.3769
-2.52046
-2.39065
-2.38945
-2.09075
-1.97371
-1.69971
-1.46785
-1.21198
-0.94731
-0.678463
-0.40774
-0.136098
65.6622
65.6636
65.6757
65.6989
65.7332
65.7789
65.8409
65.9114
66.0117
66.1068
66.2275
66.311
66.3897
-2.52548
-2.39533
-2.39392
-2.09497
-1.97775
-1.70326
-1.47101
-1.21466
-0.949441
-0.680011
-0.408681
-0.136415
65.6618
65.6632
65.6752
65.6982
65.7325
65.7782
65.8404
65.9115
66.0126
66.1093
66.2317
66.3183
66.399
-2.52904
-2.39838
-2.39691
-2.09782
-1.98048
-1.70564
-1.47316
-1.21647
-0.950883
-0.681059
-0.409317
-0.136629
65.6679
65.6641
65.675
65.698
65.7322
65.778
65.8403
65.9116
66.0132
66.1108
66.2341
66.3223
66.404
-2.53105
-2.40046
-2.39841
-2.09935
-1.9819
-1.70682
-1.47425
-1.2174
-0.951615
-0.68159
-0.409639
-0.136737
65.7049
65.7037
65.7174
65.742
65.7759
65.8161
65.8688
65.9097
65.9792
66.0049
66.0809
66.0996
66.1342
-2.35161
-2.2252
-2.22102
-1.93575
-1.82233
-1.56619
-1.34791
-1.10983
-0.865494
-0.618668
-0.371218
-0.123703
65.6983
65.702
65.7168
65.7416
65.7756
65.8159
65.8687
65.9099
65.9794
66.0067
66.0786
66.0995
66.1355
-2.35237
-2.22623
-2.22267
-1.93705
-1.82362
-1.56738
-1.34891
-1.11065
-0.866143
-0.619135
-0.371499
-0.123798
65.6963
65.7007
65.7158
65.7406
65.7747
65.8153
65.8682
65.9099
65.9795
66.0081
66.0797
66.1007
66.1378
-2.35509
-2.22951
-2.22599
-1.93993
-1.82635
-1.56975
-1.35095
-1.11235
-0.867474
-0.620093
-0.372076
-0.123991
65.6926
65.6985
65.7142
65.7392
65.7734
65.8142
65.8673
65.9096
65.9796
66.01
66.0806
66.103
66.1408
-2.35961
-2.23424
-2.23091
-1.94422
-1.83043
-1.57327
-1.35401
-1.11488
-0.869466
-0.621526
-0.37294
-0.124281
65.6897
65.6963
65.7122
65.7373
65.7717
65.8127
65.866
65.9092
65.9796
66.012
66.0821
66.1061
66.1444
-2.36583
-2.24064
-2.23737
-1.9499
-1.83582
-1.5779
-1.35803
-1.11823
-0.872094
-0.623417
-0.374081
-0.124663
65.6867
65.6937
65.7099
65.7351
65.7696
65.8109
65.8644
65.9086
65.9796
66.0143
66.0841
66.1099
66.1487
-2.3736
-2.24845
-2.24524
-1.95685
-1.84241
-1.58358
-1.36298
-1.12234
-0.875325
-0.625742
-0.375485
-0.125134
65.6837
65.691
65.7072
65.7326
65.7672
65.8088
65.8625
65.9078
65.9796
66.0168
66.0865
66.1144
66.1538
-2.38279
-2.25763
-2.25443
-1.96499
-1.85012
-1.59023
-1.36877
-1.12716
-0.879115
-0.628472
-0.377133
-0.125687
65.6807
65.6881
65.7044
65.7297
65.7644
65.8063
65.8602
65.9068
65.9794
66.0193
66.0894
66.1197
66.1596
-2.39322
-2.26795
-2.26475
-1.97418
-1.85883
-1.59774
-1.37533
-1.13262
-0.883413
-0.631569
-0.379004
-0.126314
65.6776
65.685
65.7013
65.7266
65.7614
65.8035
65.8577
65.9055
65.9793
66.022
66.0927
66.1255
66.1663
-2.40472
-2.27928
-2.27605
-1.98428
-1.8684
-1.60602
-1.38256
-1.13865
-0.88816
-0.634991
-0.381072
-0.127009
65.6746
65.6819
65.6981
65.7234
65.7581
65.8005
65.855
65.9041
65.979
66.0248
66.0963
66.132
66.1737
-2.41707
-2.2914
-2.28815
-1.99512
-1.8787
-1.61493
-1.39036
-1.14516
-0.893288
-0.63869
-0.383309
-0.12776
65.6715
65.6788
65.6949
65.72
65.7547
65.7973
65.8521
65.9025
65.9788
66.0277
66.1002
66.139
66.182
-2.43007
-2.30412
-2.30085
-2.00653
-1.88955
-1.62435
-1.39861
-1.15205
-0.898721
-0.642612
-0.385681
-0.128557
65.6684
65.6756
65.6915
65.7165
65.7511
65.7939
65.849
65.9008
65.9785
66.0306
66.1047
66.1466
66.1912
-2.44349
-2.31722
-2.31393
-2.01833
-1.90078
-1.63411
-1.40717
-1.15922
-0.904379
-0.646698
-0.388154
-0.129388
65.6655
65.6725
65.6883
65.7131
65.7475
65.7904
65.8459
65.899
65.9782
66.0336
66.1096
66.155
66.2013
-2.45711
-2.33048
-2.32719
-2.03032
-1.91222
-1.64408
-1.41593
-1.16655
-0.910173
-0.650886
-0.390689
-0.13024
65.6626
65.6695
65.685
65.7096
65.7439
65.7869
65.8427
65.8971
65.9781
66.0366
66.115
66.164
66.2125
-2.4707
-2.34368
-2.3404
-2.04231
-1.92368
-1.65408
-1.42473
-1.17393
-0.916011
-0.655109
-0.393247
-0.131101
65.6599
65.6667
65.682
65.7063
65.7404
65.7835
65.8395
65.8952
65.978
66.0398
66.1209
66.1737
66.2247
-2.48404
-2.35662
-2.35336
-2.05411
-1.93498
-1.66396
-1.43344
-1.18124
-0.9218
-0.659299
-0.395786
-0.131956
65.6574
65.6641
65.679
65.7031
65.737
65.7801
65.8364
65.8934
65.978
66.0431
66.1274
66.1842
66.2379
-2.49693
-2.36909
-2.36586
-2.06553
-1.94593
-1.67355
-1.44191
-1.18836
-0.927444
-0.663386
-0.398265
-0.13279
65.6552
65.6617
65.6764
65.7001
65.7338
65.7769
65.8335
65.8918
65.9781
66.0465
66.1343
66.1952
66.252
-2.50915
-2.3809
-2.37769
-2.07639
-1.95635
-1.6827
-1.45
-1.19518
-0.932848
-0.667303
-0.400641
-0.133591
65.6534
65.6596
65.6739
65.6974
65.7308
65.7739
65.8308
65.8903
65.9784
66.0499
66.1415
66.2066
66.2667
-2.52055
-2.39187
-2.38869
-2.0865
-1.96608
-1.69126
-1.45758
-1.20156
-0.93792
-0.670981
-0.402873
-0.134343
65.6519
65.6578
65.6718
65.6949
65.7281
65.7711
65.8284
65.889
65.9788
66.0533
66.1487
66.2179
66.2815
-2.53095
-2.40185
-2.39868
-2.09573
-1.97497
-1.69909
-1.46452
-1.20742
-0.942573
-0.674358
-0.404924
-0.135035
65.6509
65.6564
65.67
65.6928
65.7257
65.7687
65.8262
65.8879
65.9793
66.0565
66.1557
66.2288
66.2959
-2.54021
-2.41068
-2.4075
-2.10392
-1.98285
-1.70605
-1.4707
-1.21264
-0.946726
-0.677373
-0.406755
-0.135653
65.6504
65.6555
65.6685
65.691
65.7237
65.7667
65.8243
65.8869
65.9798
66.0594
66.162
66.2387
66.3092
-2.54821
-2.41828
-2.41505
-2.11095
-1.98963
-1.71204
-1.47602
-1.21714
-0.950306
-0.679974
-0.408336
-0.136186
65.6502
65.6548
65.6674
65.6896
65.7221
65.765
65.8228
65.8862
65.9802
66.0619
66.1673
66.2473
66.3208
-2.55485
-2.42449
-2.42119
-2.11671
-1.99517
-1.71694
-1.48039
-1.22084
-0.95325
-0.682113
-0.409636
-0.136625
65.6524
65.6548
65.6666
65.6886
65.7209
65.7638
65.8217
65.8857
65.9806
66.0638
66.1713
66.2541
66.3301
-2.56004
-2.42935
-2.42587
-2.12114
-1.99942
-1.72069
-1.48374
-1.22367
-0.955507
-0.683754
-0.410634
-0.136961
65.6519
65.6544
65.666
65.6878
65.7201
65.7629
65.8209
65.8853
65.9808
66.0651
66.1735
66.2588
66.3366
-2.56372
-2.43252
-2.429
-2.12413
-2.0023
-1.72321
-1.48601
-1.22559
-0.957035
-0.684864
-0.411309
-0.137189
65.6581
65.6552
65.6659
65.6876
65.7198
65.7626
65.8206
65.8852
65.9811
66.0661
66.1746
66.2606
66.3398
-2.56579
-2.43465
-2.43057
-2.12573
-2.0038
-1.72445
-1.48716
-1.22657
-0.95781
-0.685427
-0.41165
-0.137303
65.6945
65.6939
65.7076
65.732
65.7655
65.8054
65.8576
65.8985
65.9675
65.9943
66.0692
66.0896
66.1248
-2.38641
-2.25784
-2.24991
-1.95841
-1.83912
-1.5788
-1.35553
-1.11399
-0.867375
-0.619165
-0.371083
-0.123499
65.6879
65.6923
65.7071
65.7316
65.7652
65.8052
65.8575
65.8987
65.9676
65.996
66.0668
66.0894
66.1261
-2.38726
-2.25899
-2.25168
-1.95981
-1.84049
-1.58006
-1.35658
-1.11485
-0.868059
-0.619656
-0.371377
-0.123598
65.6858
65.6909
65.706
65.7306
65.7643
65.8044
65.8568
65.8985
65.9676
65.9973
66.0676
66.0905
66.1283
-2.39019
-2.2625
-2.25523
-1.96288
-1.8434
-1.58257
-1.35875
-1.11664
-0.869462
-0.620665
-0.371984
-0.123801
65.6822
65.6887
65.7044
65.7291
65.7629
65.8032
65.8557
65.898
65.9674
65.9988
66.0681
66.0925
66.131
-2.39505
-2.26759
-2.2605
-1.96745
-1.84774
-1.58631
-1.36198
-1.11932
-0.871565
-0.622176
-0.372895
-0.124106
65.6792
65.6864
65.7023
65.7272
65.7611
65.8016
65.8542
65.8973
65.9671
66.0004
66.0691
66.0951
66.1342
-2.40171
-2.27445
-2.26743
-1.9735
-1.85347
-1.59123
-1.36625
-1.12286
-0.874341
-0.624172
-0.3741
-0.12451
65.6762
65.6838
65.6999
65.7248
65.7588
65.7996
65.8523
65.8962
65.9666
66.0021
66.0703
66.0983
66.1378
-2.41003
-2.28282
-2.27586
-1.98092
-1.86049
-1.59726
-1.37149
-1.12721
-0.877757
-0.62663
-0.375583
-0.125007
65.6732
65.681
65.6972
65.7221
65.7562
65.7971
65.85
65.8949
65.9659
66.0037
66.0718
66.102
66.142
-2.41986
-2.29264
-2.2857
-1.9896
-1.8687
-1.60433
-1.37764
-1.13232
-0.881769
-0.629517
-0.377326
-0.125592
65.6702
65.678
65.6943
65.7192
65.7532
65.7943
65.8473
65.8932
65.965
66.0052
66.0733
66.1059
66.1466
-2.43101
-2.30369
-2.29676
-1.9994
-1.87799
-1.61233
-1.3846
-1.13812
-0.886324
-0.632798
-0.379308
-0.126257
65.6671
65.6749
65.6911
65.7159
65.7499
65.7912
65.8443
65.8912
65.9638
66.0066
66.0749
66.1101
66.1516
-2.44328
-2.3158
-2.30887
-2.01018
-1.8882
-1.62115
-1.3923
-1.14452
-0.891362
-0.636428
-0.381501
-0.126994
65.6639
65.6717
65.6878
65.7125
65.7464
65.7877
65.8409
65.8888
65.9624
66.0076
66.0763
66.1143
66.1568
-2.45646
-2.32876
-2.32183
-2.02175
-1.89919
-1.63065
-1.4006
-1.15144
-0.896812
-0.640358
-0.383877
-0.127792
65.6608
65.6685
65.6844
65.7089
65.7426
65.784
65.8373
65.8861
65.9608
66.0084
66.0775
66.1184
66.1621
-2.47031
-2.34234
-2.33543
-2.03393
-1.91078
-1.64069
-1.40939
-1.15878
-0.902595
-0.64453
-0.386401
-0.12864
65.6577
65.6652
65.681
65.7052
65.7388
65.7801
65.8334
65.8831
65.9589
66.0087
66.0786
66.1225
66.1675
-2.48459
-2.35632
-2.34943
-2.04653
-1.92279
-1.65112
-1.41853
-1.16642
-0.908625
-0.648884
-0.389035
-0.129526
65.6547
65.6621
65.6775
65.7015
65.7348
65.7761
65.8294
65.8798
65.9568
66.0086
66.0796
66.1264
66.1731
-2.49906
-2.37045
-2.36362
-2.05933
-1.93503
-1.66177
-1.42788
-1.17425
-0.914808
-0.653352
-0.391741
-0.130436
65.6517
65.659
65.6742
65.6979
65.7308
65.7719
65.8252
65.8763
65.9546
66.0082
66.0804
66.1302
66.1787
-2.51348
-2.38452
-2.37775
-2.07214
-1.94729
-1.67247
-1.43729
-1.18214
-0.921048
-0.657863
-0.394474
-0.131356
65.649
65.6561
65.671
65.6943
65.7269
65.7678
65.821
65.8728
65.9523
66.0076
66.0813
66.134
66.1846
-2.52762
-2.39829
-2.39159
-2.08474
-1.95938
-1.68305
-1.44661
-1.18997
-0.927242
-0.662346
-0.397191
-0.132271
65.6465
65.6533
65.6679
65.6909
65.7231
65.7638
65.8169
65.8692
65.95
66.0069
66.0822
66.1379
66.1909
-2.54126
-2.41154
-2.40494
-2.09692
-1.97111
-1.69332
-1.45569
-1.1976
-0.933288
-0.666724
-0.399846
-0.133165
65.6442
65.6509
65.6651
65.6876
65.7195
65.7599
65.8129
65.8658
65.9477
66.0061
66.0832
66.1419
66.1974
-2.55418
-2.42407
-2.41756
-2.1085
-1.98227
-1.70313
-1.46436
-1.20491
-0.939083
-0.670924
-0.402395
-0.134025
65.6423
65.6487
65.6625
65.6847
65.7161
65.7563
65.8092
65.8625
65.9455
66.0053
66.0844
66.1461
66.2042
-2.56621
-2.43569
-2.42928
-2.1193
-1.99269
-1.7123
-1.47249
-1.21176
-0.944527
-0.674872
-0.404792
-0.134833
65.6408
65.6469
65.6603
65.682
65.713
65.7529
65.8057
65.8595
65.9435
66.0046
66.0857
66.15
66.2108
-2.57717
-2.44626
-2.43992
-2.12913
-2.0022
-1.72069
-1.47994
-1.21805
-0.949525
-0.6785
-0.406996
-0.135577
65.6397
65.6454
65.6584
65.6797
65.7104
65.7499
65.8026
65.8568
65.9417
66.0039
66.0868
66.1537
66.2169
-2.5869
-2.45558
-2.4493
-2.13786
-2.01065
-1.72816
-1.48658
-1.22367
-0.95399
-0.681742
-0.408967
-0.136242
65.6392
65.6444
65.6568
65.6778
65.7081
65.7474
65.8
65.8545
65.9402
66.0032
66.0877
66.1567
66.2221
-2.5953
-2.4636
-2.45733
-2.14535
-2.0179
-1.73458
-1.49229
-1.2285
-0.957841
-0.68454
-0.410668
-0.136817
65.6389
65.6437
65.6556
65.6762
65.7062
65.7453
65.7978
65.8526
65.9388
66.0026
66.088
66.1589
66.226
-2.60225
-2.47014
-2.46385
-2.15148
-2.02384
-1.73984
-1.49699
-1.23248
-0.961009
-0.686844
-0.412069
-0.13729
65.641
65.6437
65.6548
65.6751
65.7048
65.7437
65.7961
65.8511
65.9377
66.0021
66.0879
66.1601
66.2286
-2.60768
-2.47525
-2.46882
-2.15619
-2.02839
-1.74386
-1.50058
-1.23553
-0.963438
-0.68861
-0.413144
-0.137653
65.6406
65.6432
65.6541
65.6743
65.7039
65.7426
65.7949
65.8501
65.9369
66.0015
66.087
66.1603
66.2296
-2.61152
-2.47859
-2.47214
-2.15937
-2.03147
-1.74656
-1.50302
-1.2376
-0.965084
-0.689807
-0.413872
-0.137899
65.6467
65.6441
65.6539
65.674
65.7035
65.7422
65.7944
65.8496
65.9365
66.0017
66.086
66.1547
66.2296
-2.61367
-2.4808
-2.4738
-2.16105
-2.03307
-1.74789
-1.50426
-1.23865
-0.965919
-0.690414
-0.414241
-0.138023
65.6824
65.6821
65.6957
65.7197
65.7527
65.7921
65.8436
65.8845
65.953
65.9809
66.0546
66.0768
66.1126
-2.4309
-2.29894
-2.28611
-1.9866
-1.85981
-1.59411
-1.36456
-1.11873
-0.869333
-0.619479
-0.370715
-0.123172
65.6758
65.6805
65.6951
65.7192
65.7523
65.7918
65.8434
65.8846
65.953
65.9825
66.052
66.0767
66.1139
-2.43186
-2.30024
-2.28803
-1.98812
-1.86129
-1.59546
-1.36568
-1.11966
-0.87006
-0.62
-0.371026
-0.123276
65.6737
65.6791
65.694
65.7182
65.7514
65.7909
65.8426
65.8842
65.9527
65.9835
66.0526
66.0775
66.1159
-2.43508
-2.30406
-2.29189
-1.99143
-1.86442
-1.59816
-1.36799
-1.12156
-0.871554
-0.621072
-0.371671
-0.123492
65.67
65.6768
65.6923
65.7166
65.7499
65.7896
65.8413
65.8834
65.9522
65.9847
66.0526
66.0791
66.1182
-2.44038
-2.3096
-2.29761
-1.99637
-1.86909
-1.60217
-1.37145
-1.12442
-0.873795
-0.622681
-0.37264
-0.123816
65.667
65.6744
65.6902
65.7146
65.7479
65.7878
65.8395
65.8823
65.9514
65.9857
66.0529
66.0811
66.1208
-2.44763
-2.31706
-2.30513
-2.0029
-1.87526
-1.60745
-1.37602
-1.1282
-0.876756
-0.624808
-0.373923
-0.124246
65.664
65.6717
65.6877
65.7121
65.7454
65.7854
65.8372
65.8807
65.9503
65.9866
66.0532
66.0835
66.1236
-2.45667
-2.32615
-2.31429
-2.0109
-1.88282
-1.61393
-1.38164
-1.13286
-0.880403
-0.627431
-0.375505
-0.124776
65.661
65.6688
65.6849
65.7093
65.7426
65.7827
65.8344
65.8787
65.9488
65.9872
66.0534
66.0859
66.1266
-2.46733
-2.33681
-2.32497
-2.02027
-1.89167
-1.62153
-1.38823
-1.13832
-0.884694
-0.630517
-0.377368
-0.125401
65.6579
65.6658
65.6819
65.7062
65.7393
65.7795
65.8312
65.8762
65.9469
65.9873
66.0532
66.0882
66.1295
-2.47942
-2.34879
-2.33699
-2.03086
-1.90169
-1.63014
-1.39572
-1.14454
-0.889574
-0.634029
-0.379489
-0.126113
65.6547
65.6626
65.6786
65.7027
65.7358
65.7759
65.8276
65.8732
65.9446
65.9869
66.0525
66.09
66.1321
-2.49271
-2.36191
-2.35014
-2.0425
-1.91273
-1.63965
-1.404
-1.15142
-0.89498
-0.637922
-0.381841
-0.126903
65.6515
65.6593
65.6751
65.6991
65.7319
65.7719
65.8235
65.8697
65.9417
65.9857
66.051
66.0911
66.1341
-2.50697
-2.37594
-2.36421
-2.05501
-1.92461
-1.6499
-1.41294
-1.15887
-0.900839
-0.642143
-0.384393
-0.12776
65.6483
65.656
65.6716
65.6953
65.7278
65.7676
65.8189
65.8656
65.9383
65.9836
66.0486
66.0912
66.135
-2.52193
-2.39064
-2.37897
-2.06818
-1.93715
-1.66076
-1.42243
-1.16677
-0.907066
-0.646634
-0.387109
-0.128673
65.6451
65.6527
65.668
65.6914
65.7235
65.7631
65.8141
65.861
65.9344
65.9805
66.045
66.0899
66.1348
-2.53733
-2.40575