/*--------------------------------*- C++ -*----------------------------------*\
  =========                 |
  \\      /  F ield         | OpenFOAM: The Open Source CFD Toolbox
   \\    /   O peration     | Website:  https://openfoam.org
    \\  /    A nd           | Version:  11
     \\/     M anipulation  |
\*---------------------------------------------------------------------------*/
FoamFile
{
    format      ascii;
    class       volScalarField;
    location    "600";
    object      epsilon;
}
// * * * * * * * * * * * * * * * * * * * * * * * * * * * * * * * * * * * * * //

dimensions      [0 2 -3 0 0 0 0];

internalField   nonuniform List<scalar> 
729
(
31.8586
151.444
255.564
320.929
353.836
347.031
316.263
257.88
105.31
7.02651
14.0394
39.0476
62.9845
85.8605
100.154
101.281
90.0999
64.9503
0.162863
0.562853
1.14971
3.79113
10.2987
21.2771
32.8816
40.6635
36.9655
0.0216932
0.0493417
0.143774
0.292682
1.23375
4.92567
13.1566
22.1072
22.6022
0.0205354
0.0593252
0.136804
0.254902
0.63775
2.09501
6.745
13.4209
14.3114
0.0227746
0.0680459
0.172108
0.322274
0.59623
1.47743
4.38473
8.83357
9.43173
0.0229419
0.0774218
0.177178
0.337532
0.610323
1.25583
3.22714
5.93467
6.17118
0.0231575
0.079117
0.187168
0.358431
0.616662
1.14093
2.68406
4.46879
4.464
0.0232263
0.0802691
0.186901
0.359111
0.616957
1.03807
1.97376
2.82563
2.64132
118.226
426.154
570.928
663.862
713.377
711.747
660.152
560.864
451.832
9.08282
54.944
106.634
152.422
186.132
202.828
201.629
199.08
257.808
0.193311
2.11488
10.2333
22.5981
38.3442
53.474
66.3084
83.5062
122.905
0.0505166
0.13702
0.265378
2.32603
6.33707
14.6839
26.1014
41.6637
64.2906
0.0632997
0.0660967
0.153419
0.509128
1.6402
5.36025
12.6762
23.3827
36.2415
0.0664396
0.08548
0.16925
0.39803
1.03806
2.99438
7.47787
14.3253
21.7963
0.0718183
0.0860737
0.19133
0.412316
0.910309
2.19562
5.05707
9.21915
13.3926
0.0726262
0.0876438
0.198217
0.43422
0.878648
1.82974
3.79168
6.46515
9.159
0.0731612
0.0883211
0.201829
0.440327
0.868033
1.58483
2.75069
4.00483
5.20926
150.457
488.875
653.211
770.252
838.168
845.426
794.288
692.416
686.488
12.2117
74.5617
144.371
204.469
247.836
269.742
271.092
277.16
390.288
0.321894
4.85616
19.0029
40.0814
62.4145
81.7284
98.0341
122.271
183.355
0.0999041
0.179806
1.36459
5.25499
13.7843
25.6859
40.7536
61.8561
95.0599
0.112419
0.115479
0.282227
0.989866
3.59294
9.69239
19.8897
34.4198
52.8789
0.119069
0.118098
0.238238
0.597153
1.74171
4.95975
11.3682
20.6814
31.2836
0.123768
0.124624
0.253796
0.557851
1.31423
3.30008
7.35213
13.0545
18.9506
0.124826
0.125683
0.263542
0.561118
1.1747
2.55
5.25887
8.93274
12.7449
0.125273
0.126601
0.26776
0.566582
1.12367
2.10129
3.69831
5.46345
7.16382
165.537
510.22
684.405
814.342
892.876
905.748
854.34
753.066
786.213
14.5137
82.7527
162.124
230.132
279.405
304.873
307.82
316.91
449.317
0.450238
6.67446
24.5723
50.446
76.594
98.7371
117.538
145.051
212.176
0.135486
0.320941
2.16845
8.00206
19.0219
33.2674
50.825
74.8195
110.647
0.142778
0.15164
0.401802
1.53608
5.29831
13.0748
25.256
41.8866
61.6379
0.155328
0.147924
0.302539
0.785496
2.39837
6.62497
14.4042
25.0937
36.3945
0.157258
0.153579
0.302864
0.678606
1.6665
4.23443
9.17839
15.7245
21.9816
0.160764
0.155122
0.314129
0.66341
1.41562
3.14134
6.42976
10.6468
14.7046
0.160408
0.156075
0.318284
0.663297
1.32009
2.50467
4.42598
6.44741
8.2272
170.837
515.067
692.543
826.627
908.578
923.256
871.847
770.88
813.88
15.4387
84.9814
167.3
237.843
289.06
315.732
319.202
328.989
465.552
0.498463
7.28769
26.4189
53.8296
81.2318
104.34
123.979
152.392
220.53
0.149679
0.348497
2.47236
9.03144
20.8808
35.9298
54.3296
79.1336
115.232
0.153281
0.169669
0.451028
1.77052
5.96603
14.3358
27.1999
44.4257
64.2555
0.168152
0.156518
0.325948
0.86464
2.66783
7.27242
15.5327
26.6133
37.9404
0.169534
0.164581
0.322436
0.726499
1.80914
4.60232
9.86511
16.6476
22.9047
0.173166
0.16589
0.332964
0.702299
1.51035
3.37312
6.87187
11.2398
15.3009
0.172813
0.166866
0.336996
0.69965
1.39508
2.65974
4.69708
6.78386
8.54962
166.015
510.53
684.28
814.392
892.99
905.872
854.464
753.173
786.386
14.5071
82.4371
162.019
230.17
279.486
304.96
307.91
316.995
449.436
0.425754
6.66021
24.5593
50.4506
76.6294
98.7863
117.593
145.109
212.249
0.127185
0.805011
2.1321
8.02221
19.0298
33.2915
50.8562
74.8563
110.691
0.142573
0.142722
0.39546
1.54243
5.30166
13.0871
25.2736
41.9096
61.6655
0.154882
0.149401
0.302159
0.785625
2.40024
6.63051
14.4143
25.1082
36.4121
0.156977
0.153117
0.302449
0.678439
1.66721
4.23725
9.1845
15.7336
21.9927
0.160402
0.155015
0.313958
0.663182
1.41588
3.14298
6.43372
10.6529
14.7124
0.160088
0.155838
0.317988
0.663088
1.32026
2.50572
4.4284
6.45104
8.23174
149.346
492.242
653.196
770.465
838.417
845.662
794.536
692.537
686.966
11.944
74.3037
144.249
204.6
248.014
269.916
271.271
277.294
390.583
0.327626
5.11382
18.9251
40.1007
62.4797
81.8202
98.1365
122.367
183.509
0.0973205
0.249408
1.21902
5.40692
13.7631
25.7231
40.807
61.9181
95.1474
0.111623
0.117533
0.27507
1.00696
3.58974
9.71127
19.9181
34.4581
52.9301
0.119491
0.118315
0.237467
0.596993
1.74329
4.96732
11.3838
20.7051
31.3149
0.122006
0.124113
0.25287
0.557428
1.31496
3.30391
7.36138
13.0694
18.9701
0.124997
0.125359
0.263322
0.560576
1.17488
2.55226
5.26489
8.94277
12.7584
0.124709
0.126174
0.267162
0.566095
1.12381
2.10281
3.70208
5.46945
7.17183
112.03
438.116
571.434
664.285
713.692
712.027
660.589
560.535
453.136
7.52249
57.2983
106.931
152.77
186.417
203.076
201.91
199.158
258.439
0.22841
3.26861
10.0402
22.6761
38.4434
53.5832
66.4347
83.5999
123.173
0.048974
0.182453
0.25217
2.32217
6.3523
14.7205
26.1588
41.7255
64.4153
0.0613972
0.0622239
0.151195
0.510353
1.64216
5.37329
12.7034
23.4198
36.3049
0.0658969
0.0862709
0.168864
0.397569
1.0382
2.99951
7.49163
14.348
21.8322
0.0711695
0.0852353
0.186351
0.411397
0.910312
2.19816
5.0649
9.23326
13.4137
0.0720402
0.0873083
0.199249
0.433458
0.87848
1.83129
3.79679
6.47486
9.1735
0.0725562
0.0878748
0.201035
0.439589
0.867936
1.58598
2.75402
4.01082
5.21802
31.6536
145.217
256.301
321.898
354.699
347.466
318.349
254.979
106.972
3.98102
24.0063
38.6223
63.9092
86.1425
100.479
101.387
90.4258
65.5061
0.232203
0.329971
1.26119
3.80794
10.3852
21.3799
32.9694
40.7579
37.141
0.0214024
0.0511751
0.143186
0.296002
1.23755
4.95308
13.1947
22.1482
22.6709
0.0200932
0.0575311
0.135865
0.255437
0.638035
2.10218
6.76049
13.4413
14.3447
0.0223768
0.0684204
0.161344
0.321756
0.596371
1.47817
4.39131
8.84605
9.45157
0.0225586
0.076387
0.181288
0.338527
0.60963
1.25599
3.23026
5.94311
6.18388
0.0227826
0.0784121
0.183942
0.356894
0.616363
1.14095
2.68601
4.47558
4.4736
0.0228462
0.0795322
0.185923
0.35815
0.616358
1.03798
1.97509
2.82993
2.64752
)
;

boundaryField
{
    inlet
    {
        type            fixedValue;
        value           uniform 14.855;
    }
    outlet
    {
        type            zeroGradient;
    }
    lowerWall
    {
        type            epsilonWallFunction;
        value           nonuniform List<scalar> 
162
(
31.8586
118.226
150.457
165.537
170.837
166.015
149.346
112.03
31.6536
7.02651
9.08282
12.2117
14.5137
15.4387
14.5071
11.944
7.52249
3.98102
0.162863
0.193311
0.321894
0.450238
0.498463
0.425754
0.327626
0.22841
0.232203
0.0216932
0.0505166
0.0999041
0.135486
0.149679
0.127185
0.0973205
0.048974
0.0214024
0.0205354
0.0632997
0.112419
0.142778
0.153281
0.142573
0.111623
0.0613972
0.0200932
0.0227746
0.0664396
0.119069
0.155328
0.168152
0.154882
0.119491
0.0658969
0.0223768
0.0229419
0.0718183
0.123768
0.157258
0.169534
0.156977
0.122006
0.0711695
0.0225586
0.0231575
0.0726262
0.124826
0.160764
0.173166
0.160402
0.124997
0.0720402
0.0227826
0.0232263
0.0731612
0.125273
0.160408
0.172813
0.160088
0.124709
0.0725562
0.0228462
105.31
451.832
686.488
786.213
813.88
786.386
686.966
453.136
106.972
64.9503
257.808
390.288
449.317
465.552
449.436
390.583
258.439
65.5061
36.9655
122.905
183.355
212.176
220.53
212.249
183.509
123.173
37.141
22.6022
64.2906
95.0599
110.647
115.232
110.691
95.1474
64.4153
22.6709
14.3114
36.2415
52.8789
61.6379
64.2555
61.6655
52.9301
36.3049
14.3447
9.43173
21.7963
31.2836
36.3945
37.9404
36.4121
31.3149
21.8322
9.45157
6.17118
13.3926
18.9506
21.9816
22.9047
21.9927
18.9701
13.4137
6.18388
4.464
9.159
12.7449
14.7046
15.3009
14.7124
12.7584
9.1735
4.4736
2.64132
5.20926
7.16382
8.2272
8.54962
8.23174
7.17183
5.21802
2.64752
)
;
    }
    upperWall
    {
        type            epsilonWallFunction;
        value           nonuniform List<scalar> 
162
(
31.8586
31.6536
7.02651
3.98102
0.162863
0.232203
0.0216932
0.0214024
0.0205354
0.0200932
0.0227746
0.0223768
0.0229419
0.0225586
0.0231575
0.0227826
0.0232263
0.0228462
151.444
145.217
14.0394
24.0063
0.562853
0.329971
0.0493417
0.0511751
0.0593252
0.0575311
0.0680459
0.0684204
0.0774218
0.076387
0.079117
0.0784121
0.0802691
0.0795322
255.564
256.301
39.0476
38.6223
1.14971
1.26119
0.143774
0.143186
0.136804
0.135865
0.172108
0.161344
0.177178
0.181288
0.187168
0.183942
0.186901
0.185923
320.929
321.898
62.9845
63.9092
3.79113
3.80794
0.292682
0.296002
0.254902
0.255437
0.322274
0.321756
0.337532
0.338527
0.358431
0.356894
0.359111
0.35815
353.836
354.699
85.8605
86.1425
10.2987
10.3852
1.23375
1.23755
0.63775
0.638035
0.59623
0.596371
0.610323
0.60963
0.616662
0.616363
0.616957
0.616358
347.031
347.466
100.154
100.479
21.2771
21.3799
4.92567
4.95308
2.09501
2.10218
1.47743
1.47817
1.25583
1.25599
1.14093
1.14095
1.03807
1.03798
316.263
318.349
101.281
101.387
32.8816
32.9694
13.1566
13.1947
6.745
6.76049
4.38473
4.39131
3.22714
3.23026
2.68406
2.68601
1.97376
1.97509
257.88
254.979
90.0999
90.4258
40.6635
40.7579
22.1072
22.1482
13.4209
13.4413
8.83357
8.84605
5.93467
5.94311
4.46879
4.47558
2.82563
2.82993
105.31
106.972
64.9503
65.5061
36.9655
37.141
22.6022
22.6709
14.3114
14.3447
9.43173
9.45157
6.17118
6.18388
4.464
4.4736
2.64132
2.64752
)
;
    }
}


// ************************************************************************* //
