/*--------------------------------*- C++ -*----------------------------------*\
  =========                 |
  \\      /  F ield         | OpenFOAM: The Open Source CFD Toolbox
   \\    /   O peration     | Website:  https://openfoam.org
    \\  /    A nd           | Version:  11
     \\/     M anipulation  |
\*---------------------------------------------------------------------------*/
FoamFile
{
    format      ascii;
    class       volScalarField;
    location    "600";
    object      k;
}
// * * * * * * * * * * * * * * * * * * * * * * * * * * * * * * * * * * * * * //

dimensions      [0 2 -2 0 0 0 0];

internalField   nonuniform List<scalar> 
729
(
2.50733
6.94373
10.0914
11.719
12.4956
12.3225
11.6699
9.9571
5.66365
0.617841
2.06781
2.81814
3.96657
4.85035
5.38477
5.41596
5.02846
4.0688
0.0873473
0.115236
0.28968
0.604272
1.17987
1.91716
2.56095
2.95343
2.78159
0.0193091
0.0368945
0.0632252
0.125007
0.275919
0.726093
1.39128
1.96665
1.99952
0.0188749
0.0367741
0.0668697
0.105238
0.180232
0.411714
0.890737
1.40975
1.47298
0.0197045
0.0428015
0.0752277
0.114337
0.176622
0.32295
0.668668
1.06669
1.11503
0.0203151
0.0444016
0.0800841
0.12339
0.180216
0.290783
0.545254
0.818286
0.840217
0.0202792
0.0464696
0.0810511
0.125044
0.180911
0.272664
0.482204
0.677328
0.676993
0.0203251
0.0464623
0.0816155
0.126139
0.180955
0.255996
0.392829
0.498961
0.477158
5.78071
23.5362
31.8883
37.0136
39.8166
40.1418
37.7921
32.3349
14.7403
0.947077
5.05532
9.30604
13.0198
15.7097
17.1383
17.1167
15.995
10.1337
0.0900624
0.426806
1.4154
3.10187
5.10767
6.91485
8.21657
8.77648
6.18099
0.0356684
0.0823569
0.191753
0.556869
1.49473
2.93447
4.38048
5.33857
4.01093
0.0379444
0.0790018
0.151528
0.302204
0.687615
1.55004
2.65957
3.49458
2.73608
0.0418066
0.0948274
0.173855
0.292931
0.543117
1.06823
1.83627
2.42998
1.94899
0.0426136
0.0988479
0.18533
0.31118
0.509862
0.868583
1.39659
1.75642
1.40842
0.0436902
0.103176
0.191666
0.320354
0.499508
0.767174
1.13839
1.35219
1.09314
0.0436761
0.10367
0.19353
0.324201
0.497137
0.706764
0.91841
0.970539
0.750438
7.01514
27.5872
37.6907
44.4247
48.4019
49.3882
47.1715
41.2915
19.4375
1.30156
6.70954
12.6859
17.573
21.0322
22.8963
23.0067
21.6745
13.3389
0.118235
0.777535
2.63359
5.30456
7.98492
10.1779
11.6541
12.1045
8.06069
0.0531035
0.126179
0.408152
1.23713
2.822
4.68009
6.38433
7.3457
5.20173
0.0579639
0.115902
0.237735
0.50448
1.22224
2.47201
3.86289
4.76336
3.51813
0.0608606
0.134564
0.236964
0.421041
0.816505
1.59708
2.59893
3.2603
2.47922
0.0617456
0.140083
0.250856
0.414807
0.699913
1.21643
1.9112
2.32287
1.77489
0.0624808
0.145195
0.258942
0.420746
0.65792
1.02514
1.50749
1.75709
1.36238
0.0625109
0.145953
0.260847
0.423867
0.643978
0.918488
1.19288
1.25192
0.927932
7.53779
29.096
40.0023
47.5374
52.1508
53.5123
51.2978
45.014
21.27
1.49015
7.49705
14.3098
19.8027
23.6919
25.8151
25.9803
24.4037
14.6477
0.146697
1.01593
3.40177
6.5874
9.62019
12.0341
13.6002
13.8767
8.88233
0.0656372
0.169186
0.595876
1.77391
3.69145
5.78052
7.61148
8.47382
5.75466
0.0685662
0.141794
0.29609
0.67904
1.6335
3.10338
4.63875
5.49992
3.89605
0.0713016
0.159567
0.28152
0.510641
1.02488
1.97276
3.10532
3.74824
2.7421
0.0733676
0.166614
0.2925
0.484084
0.831686
1.45783
2.25282
2.65435
1.95929
0.0735653
0.171367
0.2993
0.481594
0.758405
1.19599
1.74709
1.99267
1.49862
0.0737094
0.17246
0.301493
0.483291
0.732378
1.05036
1.36122
1.40998
1.01757
7.68695
29.484
40.6405
48.4247
53.2377
54.7138
52.4949
46.069
21.765
1.55118
7.72733
14.7947
20.4771
24.5046
26.713
26.8905
25.2172
14.9978
0.157995
1.0962
3.6548
7.00439
10.1495
12.635
14.2255
14.4196
9.11361
0.069903
0.184903
0.669013
1.96818
3.99233
6.15455
8.02168
8.83055
5.91234
0.0721583
0.151242
0.318535
0.748555
1.78651
3.32784
4.90721
5.736
4.00547
0.0748959
0.168325
0.297831
0.544645
1.10423
2.10993
3.28334
3.90662
2.81913
0.0771815
0.175835
0.306637
0.508478
0.880676
1.54671
2.3732
2.76208
2.01372
0.0773146
0.180289
0.313042
0.503023
0.794429
1.25822
1.83119
2.0691
1.53884
0.0774623
0.181538
0.315312
0.503689
0.763163
1.09713
1.4189
1.46022
1.04396
7.53127
29.1129
40.0043
47.5438
52.1584
53.5197
51.3047
45.0207
21.2718
1.48424
7.46899
14.3061
19.8076
23.6989
25.8218
25.9864
24.4092
14.6496
0.141581
0.976839
3.3883
6.58944
9.62504
12.0392
13.605
13.8807
8.88404
0.0625056
0.138176
0.586298
1.77794
3.69425
5.78386
7.61481
8.47666
5.75601
0.0695639
0.142083
0.294748
0.68022
1.63482
3.10529
4.64097
5.5019
3.8971
0.0710397
0.159227
0.281185
0.510622
1.02533
1.97381
3.10679
3.74964
2.74291
0.0733186
0.166762
0.292601
0.484029
0.831855
1.45842
2.2538
2.65535
1.9599
0.0734667
0.171064
0.298967
0.481431
0.758434
1.19635
1.74778
1.99342
1.49912
0.0736116
0.172261
0.301272
0.483138
0.732379
1.05059
1.36167
1.41047
1.01791
7.06222
27.7192
37.7039
44.4404
48.4171
49.402
47.1841
41.3071
19.4383
1.3265
6.65733
12.6875
17.5859
21.0474
22.9098
23.0186
21.6854
13.3412
0.116722
0.770197
2.63347
5.31052
7.9949
10.1877
11.663
12.112
8.06294
0.0535653
0.127211
0.406028
1.24126
2.82593
4.68612
6.39027
7.35085
5.20379
0.057849
0.115693
0.236679
0.50612
1.22331
2.47505
3.86659
4.76689
3.51983
0.0602104
0.134138
0.236847
0.420959
0.816998
1.59862
2.60129
3.26276
2.48058
0.0618962
0.140029
0.250692
0.414569
0.700032
1.21727
1.91275
2.32461
1.77595
0.0621693
0.144716
0.258378
0.42039
0.657887
1.02563
1.50858
1.7584
1.36327
0.0623214
0.145584
0.260415
0.423549
0.643929
0.918822
1.19362
1.2528
0.928553
6.00967
23.9806
31.9296
37.0369
39.8337
40.1558
37.8036
32.3695
14.7255
1.09994
4.91354
9.32482
13.0414
15.7331
17.1572
17.1339
16.0082
10.1288
0.0842325
0.435444
1.41381
3.11169
5.11977
6.92715
8.22793
8.78484
6.18041
0.0351513
0.0827552
0.186248
0.559825
1.49866
2.94061
4.38719
5.34418
4.01187
0.0379539
0.0776392
0.14973
0.301852
0.688073
1.55258
2.66334
3.49835
2.73742
0.0414283
0.0942796
0.173838
0.292553
0.543339
1.06938
1.83846
2.43258
1.95031
0.0423692
0.0982448
0.18415
0.310644
0.509758
0.869172
1.39799
1.75826
1.40954
0.0434413
0.102869
0.191225
0.319896
0.499359
0.767517
1.13938
1.3536
1.09413
0.0434347
0.103294
0.192977
0.323776
0.49701
0.707006
0.919121
0.971518
0.751139
2.50961
7.151
10.1033
11.729
12.5049
12.3386
11.6356
10.0488
5.62171
0.985208
1.4769
2.8962
3.96923
4.87197
5.39589
5.42935
5.02976
4.05535
0.0855185
0.170605
0.278561
0.611651
1.18485
1.92298
2.56703
2.95699
2.77856
0.0196013
0.0352206
0.0618211
0.124098
0.277201
0.727914
1.39437
1.96913
1.9996
0.0186214
0.0367255
0.0644338
0.104711
0.180263
0.412041
0.892308
1.41146
1.47385
0.0194805
0.0426091
0.0771133
0.114779
0.17645
0.323157
0.669379
1.06794
1.11604
0.0200729
0.0442272
0.0781356
0.122978
0.18011
0.290753
0.545583
0.819216
0.841135
0.0200623
0.0461542
0.0815457
0.124844
0.18074
0.272599
0.48245
0.678091
0.67786
0.0201028
0.046177
0.0813384
0.125914
0.180828
0.255956
0.393052
0.499549
0.477817
)
;

boundaryField
{
    inlet
    {
        type            fixedValue;
        value           uniform 0.375;
    }
    outlet
    {
        type            zeroGradient;
    }
    lowerWall
    {
        type            kqRWallFunction;
        value           nonuniform List<scalar> 
162
(
2.50733
5.78071
7.01514
7.53779
7.68695
7.53127
7.06222
6.00967
2.50961
0.617841
0.947077
1.30156
1.49015
1.55118
1.48424
1.3265
1.09994
0.985208
0.0873473
0.0900624
0.118235
0.146697
0.157995
0.141581
0.116722
0.0842325
0.0855185
0.0193091
0.0356684
0.0531035
0.0656372
0.069903
0.0625056
0.0535653
0.0351513
0.0196013
0.0188749
0.0379444
0.0579639
0.0685662
0.0721583
0.0695639
0.057849
0.0379539
0.0186214
0.0197045
0.0418066
0.0608606
0.0713016
0.0748959
0.0710397
0.0602104
0.0414283
0.0194805
0.0203151
0.0426136
0.0617456
0.0733676
0.0771815
0.0733186
0.0618962
0.0423692
0.0200729
0.0202792
0.0436902
0.0624808
0.0735653
0.0773146
0.0734667
0.0621693
0.0434413
0.0200623
0.0203251
0.0436761
0.0625109
0.0737094
0.0774623
0.0736116
0.0623214
0.0434347
0.0201028
5.66365
14.7403
19.4375
21.27
21.765
21.2718
19.4383
14.7255
5.62171
4.0688
10.1337
13.3389
14.6477
14.9978
14.6496
13.3412
10.1288
4.05535
2.78159
6.18099
8.06069
8.88233
9.11361
8.88404
8.06294
6.18041
2.77856
1.99952
4.01093
5.20173
5.75466
5.91234
5.75601
5.20379
4.01187
1.9996
1.47298
2.73608
3.51813
3.89605
4.00547
3.8971
3.51983
2.73742
1.47385
1.11503
1.94899
2.47922
2.7421
2.81913
2.74291
2.48058
1.95031
1.11604
0.840217
1.40842
1.77489
1.95929
2.01372
1.9599
1.77595
1.40954
0.841135
0.676993
1.09314
1.36238
1.49862
1.53884
1.49912
1.36327
1.09413
0.67786
0.477158
0.750438
0.927932
1.01757
1.04396
1.01791
0.928553
0.751139
0.477817
)
;
    }
    upperWall
    {
        type            kqRWallFunction;
        value           nonuniform List<scalar> 
162
(
2.50733
2.50961
0.617841
0.985208
0.0873473
0.0855185
0.0193091
0.0196013
0.0188749
0.0186214
0.0197045
0.0194805
0.0203151
0.0200729
0.0202792
0.0200623
0.0203251
0.0201028
6.94373
7.151
2.06781
1.4769
0.115236
0.170605
0.0368945
0.0352206
0.0367741
0.0367255
0.0428015
0.0426091
0.0444016
0.0442272
0.0464696
0.0461542
0.0464623
0.046177
10.0914
10.1033
2.81814
2.8962
0.28968
0.278561
0.0632252
0.0618211
0.0668697
0.0644338
0.0752277
0.0771133
0.0800841
0.0781356
0.0810511
0.0815457
0.0816155
0.0813384
11.719
11.729
3.96657
3.96923
0.604272
0.611651
0.125007
0.124098
0.105238
0.104711
0.114337
0.114779
0.12339
0.122978
0.125044
0.124844
0.126139
0.125914
12.4956
12.5049
4.85035
4.87197
1.17987
1.18485
0.275919
0.277201
0.180232
0.180263
0.176622
0.17645
0.180216
0.18011
0.180911
0.18074
0.180955
0.180828
12.3225
12.3386
5.38477
5.39589
1.91716
1.92298
0.726093
0.727914
0.411714
0.412041
0.32295
0.323157
0.290783
0.290753
0.272664
0.272599
0.255996
0.255956
11.6699
11.6356
5.41596
5.42935
2.56095
2.56703
1.39128
1.39437
0.890737
0.892308
0.668668
0.669379
0.545254
0.545583
0.482204
0.48245
0.392829
0.393052
9.9571
10.0488
5.02846
5.02976
2.95343
2.95699
1.96665
1.96913
1.40975
1.41146
1.06669
1.06794
0.818286
0.819216
0.677328
0.678091
0.498961
0.499549
5.66365
5.62171
4.0688
4.05535
2.78159
2.77856
1.99952
1.9996
1.47298
1.47385
1.11503
1.11604
0.840217
0.841135
0.676993
0.67786
0.477158
0.477817
)
;
    }
}


// ************************************************************************* //
