/*--------------------------------*- C++ -*----------------------------------*\
  =========                 |
  \\      /  F ield         | OpenFOAM: The Open Source CFD Toolbox
   \\    /   O peration     | Website:  https://openfoam.org
    \\  /    A nd           | Version:  11
     \\/     M anipulation  |
\*---------------------------------------------------------------------------*/
FoamFile
{
    format      ascii;
    class       volScalarField;
    location    "600";
    object      nut;
}
// * * * * * * * * * * * * * * * * * * * * * * * * * * * * * * * * * * * * * //

dimensions      [0 2 -1 0 0 0 0];

internalField   nonuniform List<scalar> 
729
(
0.0177598
0.0286534
0.0358628
0.0385134
0.0397152
0.0393795
0.0387548
0.0346011
0.0274135
0.00488941
0.0274102
0.0183051
0.0224822
0.0246601
0.026056
0.0260656
0.0252574
0.0229401
0.00421617
0.00212336
0.00656886
0.00866839
0.0121654
0.015547
0.0179511
0.0193059
0.0188378
0.00154684
0.00248286
0.00250231
0.00480524
0.00555365
0.00963299
0.0132412
0.0157458
0.0159201
0.00156138
0.00205158
0.00294174
0.00391033
0.00458411
0.00728197
0.0105867
0.0133274
0.0136443
0.00153433
0.00242302
0.00295935
0.0036508
0.0047089
0.00635341
0.00917744
0.0115927
0.0118639
0.00161902
0.0022918
0.00325781
0.00405965
0.00478925
0.00605966
0.00829131
0.0101544
0.0102957
0.00159827
0.00245647
0.00315884
0.00392612
0.00477667
0.00586462
0.00779673
0.00923955
0.00924034
0.00160077
0.00242044
0.00320756
0.00398758
0.00477673
0.00568176
0.00703646
0.00792978
0.00775792
0.0254386
0.11699
0.160297
0.185732
0.20001
0.203756
0.194715
0.167776
0.0432789
0.00888776
0.0418621
0.0730931
0.100094
0.119332
0.130331
0.130776
0.115661
0.0358497
0.00377636
0.00775208
0.0176191
0.0383193
0.0612334
0.080476
0.0916337
0.0830165
0.0279762
0.0022666
0.0044551
0.0124699
0.0119987
0.0317306
0.052779
0.0661641
0.061565
0.0225209
0.00204709
0.00849839
0.0134695
0.0161441
0.0259439
0.0403406
0.0502201
0.0470044
0.0185906
0.00236758
0.00946773
0.0160726
0.0194024
0.0255744
0.0342978
0.0405822
0.0370973
0.0156848
0.00227564
0.0102166
0.0161565
0.0211367
0.0257015
0.030925
0.0347123
0.0301168
0.0133305
0.00236547
0.0109315
0.0166798
0.0212713
0.0255571
0.0289495
0.0307604
0.025453
0.0117422
0.00234666
0.0109517
0.0167016
0.0214831
0.0256247
0.0283667
0.0275978
0.0211682
0.00972964
0.0294376
0.140107
0.19573
0.2306
0.251557
0.259665
0.25213
0.221614
0.0495323
0.0124852
0.0543391
0.100324
0.135927
0.160638
0.174914
0.175726
0.15255
0.0410295
0.0039086
0.0112044
0.0328487
0.0631828
0.0919387
0.114073
0.124687
0.107847
0.0318929
0.00254042
0.0079692
0.0109872
0.0262121
0.0519962
0.0767459
0.0900135
0.0785102
0.0256178
0.0026898
0.0104694
0.0180231
0.0231395
0.0374201
0.0567432
0.067521
0.0593281
0.0210661
0.00279973
0.0137993
0.0212126
0.0267182
0.0344497
0.0462848
0.0534737
0.0462571
0.017683
0.00277234
0.0141713
0.0223156
0.0277598
0.0335474
0.0403548
0.0447137
0.037199
0.014961
0.00281469
0.0150963
0.022898
0.0283941
0.0331635
0.0370907
0.0388918
0.0311061
0.013107
0.00280734
0.0151436
0.0228701
0.028539
0.0332159
0.036133
0.0346284
0.0258183
0.0108176
0.0308913
0.149331
0.210426
0.249751
0.27414
0.284539
0.27721
0.242161
0.0517889
0.0137697
0.0611281
0.113675
0.15336
0.180804
0.19673
0.197348
0.169128
0.0429761
0.00430172
0.0139172
0.0423845
0.0774183
0.108746
0.132005
0.14163
0.119479
0.0334657
0.00286187
0.00802685
0.0147369
0.0353917
0.0644738
0.0903978
0.10259
0.0863746
0.0269366
0.00296348
0.0119329
0.0196371
0.0270159
0.0453254
0.0662945
0.0766796
0.064995
0.0221638
0.00294572
0.0154915
0.0235766
0.0298766
0.0394159
0.0528699
0.0602516
0.0503885
0.018594
0.00308061
0.0162679
0.0254241
0.031079
0.0373555
0.0451711
0.0497654
0.0403257
0.0157173
0.00302971
0.0170382
0.0256653
0.0314646
0.0365679
0.0409812
0.0427245
0.0335656
0.0137459
0.00304834
0.0171509
0.0257029
0.0316921
0.0365687
0.0396433
0.0376781
0.0277511
0.011327
0.0311293
0.151898
0.214642
0.255309
0.28075
0.29182
0.28447
0.247784
0.0523842
0.0140267
0.0632379
0.117749
0.158668
0.186961
0.203408
0.203879
0.173962
0.0434838
0.00450708
0.0148401
0.0455045
0.0820278
0.114131
0.137703
0.146903
0.122796
0.0338965
0.00293815
0.00882935
0.0162929
0.0386024
0.0686985
0.0948812
0.106595
0.0886865
0.0273017
0.00305722
0.0121334
0.0202467
0.0284833
0.0481466
0.069526
0.0796789
0.0666541
0.0224718
0.00300232
0.016292
0.0244925
0.0308769
0.0411338
0.0550933
0.0624636
0.0516115
0.0188527
0.00316236
0.0169073
0.0262451
0.0320296
0.0385836
0.0467826
0.0513819
0.0412443
0.0159337
0.00310673
0.0176344
0.0264881
0.0324262
0.0376075
0.04224
0.0439172
0.0342805
0.0139288
0.00312498
0.0177749
0.0265521
0.0326353
0.0375732
0.0407306
0.0385762
0.028288
0.0114726
0.030749
0.149414
0.210485
0.249802
0.274186
0.284579
0.277245
0.242199
0.0517865
0.0136668
0.0609037
0.113689
0.153411
0.180859
0.196776
0.197384
0.169161
0.0429763
0.00423731
0.0128944
0.0420717
0.0774592
0.108806
0.13205
0.141662
0.119501
0.0334671
0.00276468
0.00213456
0.0145101
0.0354635
0.0645449
0.0904367
0.102616
0.0863899
0.0269384
0.00305473
0.0127301
0.0197716
0.0269983
0.0453699
0.066314
0.0766993
0.0650061
0.0221658
0.00293255
0.0152729
0.02355
0.0298694
0.0394202
0.0528819
0.0602661
0.0503972
0.018596
0.00308203
0.0163461
0.0254766
0.0310796
0.0373549
0.0451777
0.0497757
0.0403326
0.0157192
0.00302841
0.0169897
0.0256223
0.0314541
0.0365639
0.0409843
0.0427319
0.0335714
0.0137478
0.00304632
0.0171374
0.0256892
0.0316821
0.036564
0.0396442
0.0376827
0.0277551
0.0113285
0.030056
0.140484
0.195871
0.230699
0.25164
0.259737
0.252186
0.221743
0.049502
0.0132589
0.0536826
0.100434
0.13604
0.160755
0.175008
0.17579
0.152628
0.0410126
0.00374254
0.01044
0.0329809
0.0632943
0.0920724
0.114165
0.124747
0.107897
0.0318839
0.00265342
0.00583958
0.0121715
0.0256458
0.0522214
0.0768325
0.0900629
0.0785416
0.0256145
0.00269824
0.0102494
0.0183281
0.0228948
0.0375193
0.0567722
0.0675541
0.0593501
0.021066
0.00273055
0.0136869
0.0212606
0.0267149
0.03446
0.0463034
0.0534974
0.0462738
0.0176847
0.00282611
0.0142188
0.0223679
0.027749
0.0335402
0.0403633
0.0447302
0.0372124
0.0149635
0.00278288
0.0150355
0.0228174
0.0283735
0.0331553
0.0370938
0.0389039
0.0311177
0.0131102
0.00280296
0.0151183
0.0228454
0.0285207
0.0332067
0.0361331
0.0346363
0.0258264
0.01082
0.0290142
0.118134
0.160569
0.185848
0.200093
0.203818
0.194705
0.168233
0.0430682
0.014475
0.0379219
0.0731849
0.100197
0.119506
0.130459
0.130856
0.115806
0.0357273
0.00279568
0.0052209
0.0179179
0.0384298
0.0613651
0.0805979
0.0917126
0.0830816
0.0279101
0.0022707
0.00337817
0.0123804
0.0121466
0.0318213
0.0528681
0.0662211
0.0616033
0.0224878
0.00211157
0.00871861
0.0133452
0.0160679
0.0259475
0.0403749
0.0502546
0.047031
0.0185763
0.00234408
0.00927286
0.0161062
0.0193749
0.0255918
0.0343125
0.0406047
0.0371181
0.0156802
0.00227012
0.0101916
0.0163778
0.0211108
0.0256909
0.030931
0.0347278
0.0301339
0.0133305
0.00235762
0.0109083
0.0165173
0.0212478
0.0255468
0.0289509
0.0307725
0.025468
0.0117448
0.00234014
0.0109277
0.0166718
0.0214628
0.0256144
0.0283655
0.0276071
0.0211793
0.00973144
0.0179073
0.0316926
0.0358439
0.0384633
0.0396776
0.0394334
0.0382749
0.0356426
0.0265895
0.0219434
0.00817752
0.0195462
0.0221867
0.024799
0.0260793
0.0261673
0.0251793
0.0225952
0.00283462
0.00793874
0.00553736
0.00884218
0.0121662
0.0155664
0.0179884
0.0193077
0.0187081
0.00161566
0.00218161
0.00240224
0.00468248
0.00558815
0.0096278
0.0132618
0.0157563
0.015873
0.00155316
0.00210996
0.00275018
0.00386313
0.00458367
0.00726865
0.0105997
0.0133395
0.0136288
0.00152631
0.00238815
0.00331701
0.00368505
0.00469863
0.00635837
0.00918317
0.0116035
0.0118605
0.00160749
0.00230464
0.00303089
0.00402071
0.00478905
0.00605769
0.00829328
0.0101631
0.0102971
0.00159001
0.00244502
0.00325359
0.00393041
0.00476995
0.00586169
0.00779901
0.00924632
0.00924412
0.00159199
0.00241296
0.00320258
0.00398403
0.00477463
0.00568044
0.00703971
0.0079364
0.00776116
)
;

boundaryField
{
    inlet
    {
        type            calculated;
        value           uniform 0.000851986;
    }
    outlet
    {
        type            calculated;
        value           nonuniform List<scalar> 
81
(
0.00160077
0.00234666
0.00280734
0.00304834
0.00312498
0.00304632
0.00280296
0.00234014
0.00159199
0.00242044
0.0109517
0.0151436
0.0171509
0.0177749
0.0171374
0.0151183
0.0109277
0.00241296
0.00320756
0.0167016
0.0228701
0.0257029
0.0265521
0.0256892
0.0228454
0.0166718
0.00320258
0.00398758
0.0214831
0.028539
0.0316921
0.0326353
0.0316821
0.0285207
0.0214628
0.00398403
0.00477673
0.0256247
0.0332159
0.0365687
0.0375732
0.036564
0.0332067
0.0256144
0.00477463
0.00568176
0.0283667
0.036133
0.0396433
0.0407306
0.0396442
0.0361331
0.0283655
0.00568044
0.00703646
0.0275978
0.0346284
0.0376781
0.0385762
0.0376827
0.0346363
0.0276071
0.00703971
0.00792978
0.0211682
0.0258183
0.0277511
0.028288
0.0277551
0.0258264
0.0211793
0.0079364
0.00775792
0.00972964
0.0108176
0.011327
0.0114726
0.0113285
0.01082
0.00973144
0.00776116
)
;
    }
    lowerWall
    {
        type            nutkWallFunction;
        Cmu             0.09;
        kappa           0.41;
        E               9.8;
        value           nonuniform List<scalar> 
162
(
0.00165831
0.00242763
0.00265205
0.00274059
0.00276524
0.00273951
0.00266017
0.00247108
0.001659
0.000876404
0.00106441
0.00123015
0.00130832
0.00133245
0.00130595
0.00124082
0.00113942
0.0010837
0.000359597
0.000364658
0.000412877
0.000455534
0.000471196
0.000448225
0.000410459
0.000353682
0.000356138
0.00017972
0.000238579
0.000286395
0.00031557
0.00032479
0.00030859
0.000287533
0.000236982
0.000180976
0.000177834
0.000245461
0.000298116
0.000321935
0.00032954
0.000324069
0.000297845
0.000245489
0.000176722
0.000181416
0.000256638
0.000304846
0.000327745
0.000335197
0.000327195
0.000303351
0.000255569
0.000180457
0.000184
0.0002589
0.000306867
0.000332053
0.000339834
0.000331952
0.00030721
0.000258218
0.00018298
0.000183849
0.000261882
0.000308534
0.000332462
0.000340102
0.000332258
0.000307829
0.000261197
0.000182936
0.000184042
0.000261844
0.000308602
0.00033276
0.000340399
0.000332558
0.000308173
0.000261179
0.000183107
0.00240505
0.00372468
0.00422787
0.0044061
0.00445282
0.00440628
0.00422795
0.00372297
0.0023969
0.00206802
0.00313769
0.00355815
0.00371394
0.00375433
0.00371417
0.00355843
0.00313699
0.0020649
0.00173867
0.00250301
0.00282591
0.00295414
0.00298907
0.0029544
0.00282627
0.00250291
0.00173781
0.00149581
0.00205455
0.0023134
0.00242262
0.00245272
0.00242288
0.00231382
0.00205477
0.00149584
0.00130143
0.00172564
0.00193527
0.00202749
0.00205327
0.00202774
0.0019357
0.00172603
0.00130178
0.00114651
0.00147847
0.00164981
0.00172737
0.00174933
0.0017276
0.00165022
0.00147892
0.00114698
0.00100797
0.00127514
0.00141677
0.00148202
0.00150064
0.00148223
0.00141716
0.0012756
0.00100847
0.000913626
0.00113621
0.00125599
0.0013117
0.00132762
0.0013119
0.00125636
0.00113668
0.000914158
0.000779217
0.000957456
0.00105456
0.00109976
0.00111265
0.00109993
0.00105488
0.000957863
0.000779706
)
;
    }
    upperWall
    {
        type            nutkWallFunction;
        Cmu             0.09;
        kappa           0.41;
        E               9.8;
        value           nonuniform List<scalar> 
162
(
0.00165831
0.001659
0.000876404
0.0010837
0.000359597
0.000356138
0.00017972
0.000180976
0.000177834
0.000176722
0.000181416
0.000180457
0.000184
0.00018298
0.000183849
0.000182936
0.000184042
0.000183107
0.00263968
0.0026754
0.00151887
0.00130301
0.000408068
0.00048797
0.000242315
0.000237197
0.000241952
0.000241804
0.000259424
0.000258888
0.000263831
0.000263355
0.000269399
0.000268559
0.00026938
0.00026862
0.00313169
0.00313337
0.00174905
0.00177098
0.000620949
0.000609989
0.000310211
0.000307039
0.000318267
0.00031291
0.000335875
0.000339697
0.000345616
0.000341748
0.000347516
0.000348483
0.000348619
0.000348078
0.00335342
0.00335474
0.00204415
0.00204478
0.000867595
0.000872399
0.000423497
0.00042209
0.000391519
0.000390623
0.000406613
0.00040733
0.000420991
0.000420349
0.000423554
0.000423245
0.00042524
0.000424894
0.00345337
0.00345454
0.0022407
0.00224525
0.00117638
0.00117865
0.000607349
0.000608631
0.000500322
0.000500362
0.000495734
0.000495514
0.000500302
0.000500168
0.00050118
0.000500964
0.000501236
0.000501075
0.00343138
0.00343344
0.00235023
0.00235244
0.00146742
0.00146945
0.000943197
0.000944273
0.000728644
0.000728907
0.000652437
0.000652628
0.000622024
0.000621995
0.000604079
0.000604012
0.000586985
0.000586943
0.00334699
0.00334248
0.00235643
0.00235909
0.00167438
0.00167619
0.00126805
0.00126934
0.00103511
0.00103594
0.000908498
0.000908937
0.000827968
0.000828195
0.000782955
0.000783137
0.000713245
0.000713429
0.00311256
0.00312564
0.0022779
0.00227816
0.00178685
0.00178783
0.00148456
0.00148541
0.00127569
0.00127639
0.00112361
0.00112421
0.000995914
0.000996429
0.000913832
0.0009143
0.000795216
0.000795643
0.00240505
0.0023969
0.00206802
0.0020649
0.00173867
0.00173781
0.00149581
0.00149584
0.00130143
0.00130178
0.00114651
0.00114698
0.00100797
0.00100847
0.000913626
0.000914158
0.000779217
0.000779706
)
;
    }
}


// ************************************************************************* //
