/*--------------------------------*- C++ -*----------------------------------*\
  =========                 |
  \\      /  F ield         | OpenFOAM: The Open Source CFD Toolbox
   \\    /   O peration     | Website:  https://openfoam.org
    \\  /    A nd           | Version:  11
     \\/     M anipulation  |
\*---------------------------------------------------------------------------*/
FoamFile
{
    format      ascii;
    class       volScalarField;
    location    "600";
    object      p;
}
// * * * * * * * * * * * * * * * * * * * * * * * * * * * * * * * * * * * * * //

dimensions      [0 2 -2 0 0 0 0];

internalField   nonuniform List<scalar> 
729
(
2.92242
3.53751
3.11239
2.11599
1.13121
0.256135
-0.412176
-1.32229
2.35353
0.294789
0.207183
0.219203
0.0794693
-0.0982799
-0.188993
-0.0704155
0.185113
1.39151
0.185187
0.201339
0.225039
0.153969
0.00155359
-0.122199
-0.0898854
0.0743628
0.424335
0.136178
0.137567
0.107478
0.0179301
-0.120099
-0.231925
-0.238421
-0.189954
-0.03985
0.1019
0.0774654
0.0150183
-0.0818275
-0.197699
-0.281597
-0.294128
-0.257195
-0.149146
0.0581364
0.0215516
-0.0447928
-0.13393
-0.225682
-0.280776
-0.287221
-0.231791
-0.14816
0.0270857
-0.00665316
-0.0609268
-0.130471
-0.196008
-0.230167
-0.232622
-0.179357
-0.129101
0.00663694
-0.0133
-0.0441584
-0.0835441
-0.120056
-0.143009
-0.144879
-0.101939
-0.078308
-0.00387945
-0.00708994
-0.0117291
-0.0179087
-0.02413
-0.036822
-0.0342432
-0.0306072
-0.0508707
3.67713
4.80092
4.12389
2.60669
1.23524
-0.119458
-1.77093
-4.36517
2.27723
-0.100063
-0.18034
-0.243606
-0.3078
-0.323271
-0.264542
0.0310541
0.484797
3.09489
0.180836
0.19867
0.201991
0.129557
0.0145666
-0.0712044
-0.00514055
0.195573
1.19191
0.108474
0.102415
0.0662536
-0.0234241
-0.145594
-0.238329
-0.256572
-0.345818
-0.0840601
0.0775195
0.0364578
-0.0302131
-0.120484
-0.222164
-0.29646
-0.32422
-0.435741
-0.317677
0.032013
-0.017933
-0.0824521
-0.161116
-0.236827
-0.287667
-0.306546
-0.374014
-0.257043
0.0072903
-0.0356449
-0.0858893
-0.145527
-0.199134
-0.232659
-0.246504
-0.292471
-0.20639
-0.00422785
-0.0286394
-0.0568406
-0.0904801
-0.121761
-0.14318
-0.152788
-0.184684
-0.133716
-0.00569835
-0.00952544
-0.0137276
-0.0193954
-0.0261889
-0.0349143
-0.0396948
-0.0742977
-0.0878105
4.54383
6.21541
5.53785
3.59867
1.81984
-0.0310579
-2.76347
-6.65918
1.61379
-0.196403
-0.313452
-0.551951
-0.645926
-0.566307
-0.370967
0.11764
0.935524
4.37513
0.142354
0.155354
0.125837
0.0418053
-0.0574218
-0.10111
0.0837863
0.480882
1.94469
0.047127
0.044741
0.0059073
-0.0843059
-0.198543
-0.280108
-0.271042
-0.370525
-0.0149496
0.0380197
-0.00112546
-0.0602904
-0.144889
-0.242811
-0.318623
-0.345308
-0.482709
-0.368378
0.00283456
-0.0452664
-0.100661
-0.169595
-0.237716
-0.289461
-0.310265
-0.388618
-0.25718
-0.0118458
-0.0529822
-0.096317
-0.148318
-0.194082
-0.225511
-0.24015
-0.293738
-0.193576
-0.0143828
-0.0378776
-0.0621709
-0.0915513
-0.11674
-0.132857
-0.139953
-0.177889
-0.124759
-0.00738365
-0.0109439
-0.0141175
-0.0191087
-0.0241274
-0.0283414
-0.0320862
-0.0705409
-0.0889457
5.02279
6.86127
6.22008
4.11247
2.12988
-0.00660707
-3.32374
-7.67745
1.10187
-0.201348
-0.416509
-0.728522
-0.815687
-0.687666
-0.430867
0.155503
1.22169
4.95909
0.102672
0.108962
0.0483031
-0.049236
-0.137316
-0.14037
0.14718
0.714216
2.43214
0.00683858
0.00620425
-0.0400172
-0.135784
-0.245907
-0.311557
-0.262692
-0.329202
0.08775
0.00904548
-0.0290614
-0.0859797
-0.169087
-0.264643
-0.336338
-0.349835
-0.481104
-0.380908
-0.0178135
-0.0649644
-0.115587
-0.17848
-0.241758
-0.291978
-0.309726
-0.382218
-0.259257
-0.0251428
-0.0652028
-0.104493
-0.150912
-0.190773
-0.219609
-0.235165
-0.288086
-0.193205
-0.0213509
-0.0441528
-0.0660102
-0.0919858
-0.112452
-0.124371
-0.132361
-0.173688
-0.129545
-0.00871408
-0.0122783
-0.0148777
-0.0191157
-0.0227536
-0.0241926
-0.0291061
-0.0724334
-0.0973818
5.15912
7.03722
6.41605
4.26192
2.21737
-0.00829085
-3.49887
-7.95501
0.923341
-0.197791
-0.451445
-0.781082
-0.862939
-0.721578
-0.448263
0.166903
1.30778
5.11302
0.0867808
0.0904343
0.0209645
-0.0791397
-0.162386
-0.151247
0.171258
0.795731
2.59624
-0.0063763
-0.00707688
-0.0559925
-0.15358
-0.261802
-0.320804
-0.256152
-0.307256
0.128487
-0.00122714
-0.0393712
-0.0955431
-0.178111
-0.272771
-0.342215
-0.349761
-0.476691
-0.384753
-0.0250896
-0.0718763
-0.120957
-0.181852
-0.24361
-0.292964
-0.308956
-0.377259
-0.260672
-0.029818
-0.0694494
-0.107365
-0.15179
-0.189657
-0.217465
-0.232871
-0.283261
-0.19198
-0.0237292
-0.0462737
-0.0672753
-0.0919786
-0.110774
-0.121212
-0.129104
-0.16953
-0.129133
-0.00908575
-0.0126537
-0.0150363
-0.0189934
-0.0221149
-0.0225535
-0.0275354
-0.0713004
-0.0982341
5.01817
6.85952
6.2191
4.11213
2.12971
-0.00687822
-3.32442
-7.67763
1.10354
-0.200006
-0.412747
-0.728377
-0.816509
-0.688086
-0.430847
0.156001
1.22278
4.96134
0.100835
0.106436
0.0469707
-0.04906
-0.137082
-0.140169
0.147691
0.715073
2.43377
0.00787511
0.00646292
-0.0403655
-0.135364
-0.24548
-0.311247
-0.262312
-0.328815
0.0884257
0.00963094
-0.0295825
-0.0860405
-0.168842
-0.26438
-0.336069
-0.349541
-0.480839
-0.380615
-0.0176155
-0.0650397
-0.115605
-0.178277
-0.241521
-0.291746
-0.309496
-0.381997
-0.259061
-0.0249533
-0.0650941
-0.104379
-0.150749
-0.1906
-0.219446
-0.235011
-0.287939
-0.193089
-0.0212186
-0.0440352
-0.0659121
-0.091889
-0.112354
-0.124281
-0.13228
-0.173613
-0.129497
-0.00864251
-0.0122088
-0.0148241
-0.0190758
-0.0227263
-0.0241684
-0.0290843
-0.0724186
-0.0973875
4.53197
6.20904
5.53499
3.59761
1.81933
-0.0315742
-2.76468
-6.65954
1.6179
-0.193309
-0.317287
-0.557089
-0.649077
-0.567961
-0.37148
0.118366
0.937566
4.37951
0.140433
0.152357
0.12362
0.0407754
-0.0578766
-0.101036
0.084551
0.482265
1.94742
0.0458652
0.0440271
0.00551063
-0.0840588
-0.19809
-0.279583
-0.270418
-0.36995
-0.0137731
0.0375132
-0.00143235
-0.0603395
-0.144502
-0.242289
-0.318084
-0.344786
-0.482301
-0.367821
0.00302776
-0.0451748
-0.10048
-0.169197
-0.237255
-0.289011
-0.309849
-0.38828
-0.256826
-0.0114604
-0.0526615
-0.0960481
-0.148012
-0.193761
-0.225212
-0.239881
-0.293525
-0.193379
-0.0140825
-0.0375962
-0.061955
-0.0913598
-0.116558
-0.132701
-0.139821
-0.177792
-0.124681
-0.00724354
-0.0107965
-0.0140079
-0.0190295
-0.0240763
-0.0283015
-0.0320541
-0.0705284
-0.0889569
3.65261
4.79184
4.12302
2.60795
1.23695
-0.118476
-1.7714
-4.36426
2.28487
-0.0972002
-0.199317
-0.257516
-0.31381
-0.325943
-0.265512
0.0319665
0.487542
3.10079
0.178471
0.190412
0.196991
0.127603
0.0138905
-0.0710978
-0.00420392
0.197244
1.19499
0.106626
0.100257
0.0650768
-0.0231857
-0.144847
-0.237466
-0.255739
-0.345081
-0.0827207
0.077211
0.0359012
-0.0304446
-0.119965
-0.221365
-0.295655
-0.323538
-0.435256
-0.316976
0.0326947
-0.0176023
-0.0822051
-0.16061
-0.236218
-0.287076
-0.306028
-0.373656
-0.256623
0.00803902
-0.0350093
-0.085477
-0.145132
-0.198744
-0.232311
-0.246196
-0.292283
-0.206197
-0.00370974
-0.0281465
-0.0564995
-0.0902268
-0.121547
-0.143019
-0.152662
-0.184637
-0.133666
-0.00548691
-0.00931074
-0.0135635
-0.0192873
-0.0261284
-0.0348828
-0.0396744
-0.0743107
-0.0878507
2.85198
3.52214
3.12055
2.12413
1.13981
0.262914
-0.407173
-1.31664
2.36339
0.287445
0.188243
0.205177
0.0770844
-0.0984546
-0.188078
-0.0678204
0.189115
1.39749
0.187337
0.192456
0.217472
0.151689
0.00130384
-0.121448
-0.0883287
0.0764337
0.426913
0.135552
0.135688
0.10551
0.0179167
-0.11933
-0.230955
-0.237437
-0.189146
-0.0386146
0.10197
0.0774205
0.0147138
-0.0814424
-0.196915
-0.280781
-0.293423
-0.256767
-0.148314
0.05886
0.0225281
-0.0442574
-0.133345
-0.225043
-0.280201
-0.286725
-0.231539
-0.147622
0.0279272
-0.00562988
-0.0602497
-0.129937
-0.195606
-0.229862
-0.232392
-0.179292
-0.128846
0.0072231
-0.0126203
-0.0436799
-0.0832103
-0.119867
-0.142903
-0.144858
-0.101998
-0.0782171
-0.00364936
-0.00684599
-0.0115577
-0.0177904
-0.0241014
-0.0368251
-0.0342808
-0.0306481
-0.050894
)
;

boundaryField
{
    inlet
    {
        type            zeroGradient;
    }
    outlet
    {
        type            fixedValue;
        value           uniform 0;
    }
    lowerWall
    {
        type            zeroGradient;
    }
    upperWall
    {
        type            zeroGradient;
    }
}


// ************************************************************************* //
