/*--------------------------------*- C++ -*----------------------------------*\
  =========                 |
  \\      /  F ield         | OpenFOAM: The Open Source CFD Toolbox
   \\    /   O peration     | Website:  https://openfoam.org
    \\  /    A nd           | Version:  11
     \\/     M anipulation  |
\*---------------------------------------------------------------------------*/
FoamFile
{
    format      ascii;
    class       surfaceScalarField;
    location    "600";
    object      phi;
}
// * * * * * * * * * * * * * * * * * * * * * * * * * * * * * * * * * * * * * //

dimensions      [0 3 -1 0 0 0 0];

internalField   nonuniform List<scalar> 
1944
(
0.00824806
-0.00197667
-0.00636683
0.011959
0.00255223
-0.0062916
0.0170231
0.000555175
-0.0056487
0.0204381
0.000790199
-0.00421525
0.0227722
0.0003457
-0.00268383
0.02401
-0.000479229
-0.000759202
0.0232323
-0.00181632
0.00259597
0.0196587
-0.00307288
0.00664757
0.0157281
0.00393311
-0.0025467
-0.00361631
0.00413991
0.000800107
-0.004309
0.0034719
0.00447594
-0.0051683
0.00202852
0.00799408
-0.00405724
0.00132028
0.0106172
-0.00310248
0.000821322
0.0115992
-0.00207889
0.000617152
0.0098648
-0.000825133
0.000743747
0.00339323
0.00270793
0.000692946
0.0195083
-0.000385314
-0.000641922
-0.00315828
0.000147868
0.00149568
-0.00766098
0.00119929
0.00322425
-0.00853734
0.00163177
0.00501661
-0.00759563
0.00174049
0.00616885
-0.00569348
0.0014363
0.00610229
-0.00294876
0.000935473
0.00400745
0.00100765
0.000262274
-0.000566637
0.0080593
-0.000776129
0.0210815
-0.00213897
0.000922273
-0.0050709
0.000983856
0.00170631
-0.00956726
0.00111887
0.0026164
-0.0104306
0.000981287
0.00350344
-0.00945673
0.000972285
0.0038711
-0.00696585
0.000903228
0.00330237
-0.00311019
0.000729287
0.0014767
0.00250449
0.000328673
-0.00180062
0.0118483
-0.000511189
0.0212427
-0.00196151
0.00095294
-0.00664142
0.000616708
0.00148891
-0.0108155
0.00071231
0.00198901
-0.0115567
0.00062609
0.00243635
-0.0103749
0.000470848
0.0024855
-0.00736157
0.000346028
0.00179256
-0.00276729
0.000349557
4.06414e-05
0.0039779
0.000278349
-0.00223048
0.0143855
-0.000265951
0.0205564
-0.00154411
0.000731512
-0.0078487
0.000474724
0.00101233
-0.0115973
0.000500738
0.00125628
-0.0121948
0.000394565
0.00143247
-0.010768
0.000217224
0.00130295
-0.00724898
1.69099e-05
0.000594647
-0.00207663
1.73786e-05
-0.00104163
0.00551162
0.000102506
-0.00237901
0.0159147
-0.000191665
0.019433
-0.00125568
0.000431168
-0.00856855
0.000286909
0.000534552
-0.0119913
0.00029018
0.000626779
-0.0124901
0.000203155
0.000646052
-0.0108447
5.75424e-05
0.000410747
-0.00687828
-0.000135364
-0.000335192
-0.00115867
-0.000172071
-0.00174165
0.00696116
-4.3035e-05
-0.00237303
0.0167261
-0.000179998
0.018083
-0.00102304
0.000183535
-0.00891187
0.000158408
0.000180499
-0.012138
0.0001492
0.000170329
-0.0125618
8.1781e-05
9.29312e-05
-0.0107453
-2.19458e-05
-0.000180786
-0.00644053
-0.00016399
-0.00100763
-5.57658e-05
-0.000276029
-0.00217959
0.00831394
-0.000180762
-0.00229705
0.0170728
-0.000229195
0.0166578
-0.000871919
5.39487e-05
8.84686e-05
1.86456e-05
7.07064e-05
-4.83208e-05
2.08608e-05
-0.000188475
-5.04691e-05
-0.000539792
-0.000146315
-0.00147493
-0.000292825
-0.00219533
-0.000271967
-0.00192048
-0.000321438
-0.000688501
0.00492041
-0.00657895
-0.00472947
0.0112514
-0.00806969
-0.00456875
0.0155144
-0.00566292
-0.00425666
0.018505
-0.00385887
-0.00335238
0.0208838
-0.00289837
-0.00216655
0.0231189
-0.00239467
-0.000600008
0.0255626
-0.00188003
0.00203291
0.0253381
0.00215044
0.00472385
0.0244647
0.00480866
0.000972306
-0.00599857
0.00259335
0.00350715
-0.00873288
0.00159667
0.00711459
-0.00797499
0.000728318
0.0103207
-0.00610622
0.000357934
0.0124057
-0.00438962
0.000225853
0.0129636
-0.00267834
0.000342472
0.0111945
-0.000154614
0.000788072
0.00663177
0.00626875
0.00113893
0.0287187
0.00199365
0.000867233
-0.00785871
0.00115848
0.00292829
-0.0113428
0.00175023
0.00478269
-0.0101787
0.0019792
0.00660224
-0.00793484
0.00174757
0.0076479
-0.00530781
0.0013076
0.00732014
-0.00222299
0.00080746
0.00505824
0.00211533
0.000254491
0.00114831
0.00986035
-0.000456992
0.0282809
-0.000552337
0.00117099
-0.00919542
0.0011577
0.00189745
-0.0120534
0.00110631
0.00285778
-0.0112069
0.00104995
0.00383833
-0.00898634
0.00104287
0.00430382
-0.0057726
0.000901994
0.00386224
-0.00166749
0.000615026
0.00229991
0.00385146
0.000154839
-0.000246978
0.0124077
-0.000511524
0.0271967
-0.00112425
0.00111019
-0.0103678
0.000682846
0.00165829
-0.0125678
0.000680806
0.00211413
-0.0115759
0.000540742
0.00248441
-0.00930909
0.000423871
0.00248283
-0.00576607
0.000341081
0.00194482
-0.00106387
0.000283728
0.000832265
0.0051537
8.84763e-05
-0.000803078
0.0141377
-0.000360746
0.0258322
-0.000982852
0.000799736
-0.0111378
0.00044618
0.00106134
-0.012731
0.00040351
0.00128799
-0.0116874
0.000280408
0.00141413
-0.00934272
0.000125288
0.00125339
-0.00556993
-1.83013e-05
0.000712123
-0.000471265
-3.40515e-05
-0.000172266
0.00618991
-4.94917e-05
-0.00120178
0.0152781
-0.000302694
0.0242062
-0.000831586
0.000472757
-0.0115714
0.000247599
0.00056111
-0.0127385
0.000209551
0.000643028
-0.0116834
0.000117628
0.000624468
-0.00925114
-1.50829e-05
0.000388825
-0.0052941
-0.000175361
-0.000124668
0.000100074
-0.000229938
-0.000849089
0.0070477
-0.000176536
-0.00141241
0.015951
-0.000289805
0.022483
-0.000712356
0.000214094
-0.0117589
0.000131582
0.000214323
-0.0126912
0.000101682
0.000196479
-0.0116173
3.37806e-05
9.17328e-05
-0.00910289
-6.51994e-05
-0.000181625
-0.00497793
-0.000206678
-0.000696092
0.000662932
-0.00032444
-0.00131191
0.00776422
-0.000281543
-0.0015058
0.0162231
-0.000307465
0.0207226
-0.000617491
7.73314e-05
8.18182e-05
5.60446e-05
5.74036e-05
-1.67524e-05
3.20591e-06
-0.000176629
-7.27203e-05
-0.000486742
-0.000175568
-0.00100529
-0.000298093
-0.0014421
-0.000308758
-0.00131788
-0.000311829
-0.000481222
0.00448726
-0.00653034
-0.00264962
0.0116916
-0.00918456
-0.00258534
0.0158666
-0.00600275
-0.00243116
0.0185813
-0.0041072
-0.00196211
0.0208302
-0.00314116
-0.00127563
0.0232209
-0.00266406
-0.000327169
0.0261701
-0.00207419
0.0011585
0.0250367
0.00324599
0.0026128
0.0266613
0.00318516
0.00323254
-0.00847178
0.00132537
0.00495483
-0.0100744
0.000768353
0.00811213
-0.00866812
0.000236098
0.0109097
-0.00657338
2.54348e-05
0.0126535
-0.00466976
9.88295e-06
0.0128833
-0.00271499
0.000163392
0.01075
0.000326109
0.000521449
0.00607982
0.00811864
0.000937371
0.0326111
0.00212436
0.00141482
-0.00980169
0.00108605
0.00356832
-0.0117956
0.00132268
0.00545465
-0.00982571
0.00125169
0.00707272
-0.00745239
0.0010083
0.00784716
-0.00485589
0.000718852
0.00718423
-0.0016809
0.000436137
0.00453358
0.00307249
0.000158933
0.000373942
0.0119134
-9.16753e-05
0.0320312
0.000401696
0.00108665
-0.0104581
0.000736448
0.00182933
-0.0121508
0.000723101
0.00289437
-0.0105778
0.000739031
0.00391233
-0.00814719
0.000720225
0.0043066
-0.00492991
0.000581679
0.00369077
-0.000805282
0.000355119
0.00189625
0.00496933
5.24923e-05
-0.000763683
0.0143301
-0.000268245
0.0303674
-0.000224089
0.00105711
-0.011292
0.000464579
0.00158705
-0.0124382
0.000441132
0.00205584
-0.0108689
0.000364741
0.00240413
-0.00837534
0.000304489
0.00235003
-0.00478145
0.0002469
0.00172398
-5.8931e-05
0.000163364
0.000500488
0.00628643
-5.24817e-06
-0.00108923
0.0157994
-0.000240498
0.0285683
-0.000273058
0.000762148
-0.0118945
0.000288425
0.00100711
-0.0125319
0.000253627
0.00123636
-0.0109923
0.000175589
0.00132933
-0.00841837
7.59388e-05
0.00110746
-0.00456786
-9.79203e-06
0.000493587
0.000561525
-4.06365e-05
-0.000442335
0.00726389
-9.11592e-05
-0.00140457
0.016695
-0.000236233
0.0265942
-0.000262182
0.000452726
-0.0122586
0.000159672
0.000535794
-0.0125352
0.00013027
0.000606294
-0.0110113
6.65591e-05
0.000548566
-0.00834854
-2.6796e-05
0.000256413
-0.00431756
-0.000133315
-0.00030981
0.00107726
-0.000179452
-0.0010526
0.0080055
-0.000175466
-0.00156255
0.017162
-0.000247085
0.0245786
-0.000259493
0.00020586
-0.012416
8.29306e-05
0.000202587
-0.0124911
6.09274e-05
0.000174204
-0.010961
1.20909e-05
3.2086e-05
-0.00820994
-6.15147e-05
-0.000291451
-0.00403802
-0.000162619
-0.000831298
0.00153524
-0.000242595
-0.00144363
0.00857741
-0.000241202
-0.00159457
0.0172696
-0.000264231
0.0226175
-0.000250965
7.47816e-05
5.3527e-05
5.24288e-05
3.3913e-05
-3.13543e-05
-6.44601e-06
-0.000219089
-6.46282e-05
-0.000557281
-0.0001429
-0.0010562
-0.000223991
-0.00149272
-0.000247208
-0.00135078
-0.000251533
-0.000215427
0.00445902
-0.00630775
-0.000800601
0.0120067
-0.00931506
-0.000816794
0.0161917
-0.00584302
-0.000773196
0.0188186
-0.00395989
-0.000629826
0.0210251
-0.00307487
-0.000408137
0.0234824
-0.00268915
-9.56525e-05
0.0263912
-0.00212905
0.00037886
0.0246229
0.00354555
0.000835999
0.0267326
0.00107612
0.00408621
-0.00946155
0.00040352
0.00558915
-0.0102915
0.000243913
0.00858599
-0.00866866
6.52504e-05
0.0111969
-0.00653806
-7.64425e-06
0.0127529
-0.00461393
-7.50469e-06
0.0127698
-0.00259606
5.31491e-05
0.0103375
0.000641771
0.000182973
0.00547059
0.00899672
0.000353517
0.033485
0.000842785
0.00163854
-0.0104144
0.00041315
0.00397833
-0.0117866
0.000481723
0.00583961
-0.00969849
0.000421347
0.00728941
-0.00730306
0.00032367
0.00783903
-0.00467064
0.00022579
0.00690344
-0.00136146
0.000136986
0.00393333
0.00371396
5.68947e-05
-0.000446939
0.0132753
1.02709e-05
0.0331729
0.000267018
0.0010488
-0.0109434
0.000223307
0.0018733
-0.0121376
0.000252899
0.00298409
-0.0103336
0.00026483
0.00395275
-0.00780096
0.000249908
0.00420628
-0.00453775
0.000195306
0.00337882
-0.000292331
0.00011339
0.00132633
0.00580624
1.27012e-05
-0.00148096
0.0158877
-7.3357e-05
0.0314439
2.39521e-05
0.00102607
-0.0116543
0.000152369
0.00154338
-0.0123594
0.000147363
0.00199779
-0.0105496
0.000127318
0.0023013
-0.00790839
0.000108892
0.00216396
-0.00424016
8.67909e-05
0.001398
0.00058636
5.06107e-05
-6.61249e-06
0.00721636
-1.07848e-05
-0.00162894
0.0173462
-7.66985e-05
0.0295602
-1.83213e-05
0.000734658
-0.012193
9.37695e-05
0.000962771
-0.0124171
8.3947e-05
0.00116967
-0.0106387
5.83426e-05
0.00121236
-0.00789894
2.41603e-05
0.000910111
-0.00394274
-4.81203e-06
0.000186084
0.00128906
-1.92952e-05
-0.000878925
0.00823162
-4.14533e-05
-0.00183015
0.0181439
-8.27562e-05
0.0274991
-3.13219e-05
0.000433346
-0.0125188
5.19837e-05
0.000501935
-0.0123976
4.22783e-05
0.000548828
-0.0106388
1.99635e-05
0.00044547
-0.00780837
-1.38071e-05
8.40983e-05
-0.00366328
-5.12912e-05
-0.000571222
0.00183395
-6.89956e-05
-0.00140874
0.00896539
-7.17435e-05
-0.00190395
0.018483
-9.10467e-05
0.0253797
-4.41094e-05
0.000193607
-0.0126553
2.55728e-05
0.000180041
-0.0123415
1.83553e-05
0.000131843
-0.0105792
7.82055e-07
-4.94255e-05
-0.00766196
-2.65629e-05
-0.000433056
-0.00337908
-6.31226e-05
-0.00103829
0.00228811
-9.15148e-05
-0.00171774
0.00949814
-9.45305e-05
-0.00185681
0.018456
-9.82103e-05
0.0233221
-5.01848e-05
6.78411e-05
1.83467e-05
3.71166e-05
1.07121e-05
-6.28045e-05
-4.5359e-06
-0.000280586
-2.66317e-05
-0.000663611
-5.59119e-05
-0.00119867
-8.50897e-05
-0.00167862
-9.47945e-05
-0.00153957
-9.08228e-05
-4.51019e-05
0.0044533
-0.00620461
0.000984381
0.0121202
-0.00935958
0.000875647
0.0163131
-0.0057875
0.000820505
0.0189183
-0.0038994
0.000664002
0.021114
-0.00303971
0.000435624
0.0235838
-0.00268469
0.000119199
0.0264528
-0.00213207
-0.000358109
0.0244767
0.00363246
-0.000820008
0.0266249
-0.00107195
0.00432923
-0.00974703
-0.000379962
0.005772
-0.0103515
-0.000206258
0.00873034
-0.0086573
-2.41832e-05
0.0112885
-0.00650389
3.82733e-05
0.012785
-0.0045749
3.10458e-05
0.0127295
-0.00254199
-3.40736e-05
0.0101962
0.000751602
-0.000167407
0.00525858
0.00926562
-0.000341822
0.0335633
-0.00083691
0.00172891
-0.0105766
-0.00048364
0.00412295
-0.0117996
-0.000463767
0.00596194
-0.00968233
-0.000393332
0.00735142
-0.00726421
-0.000305803
0.00782189
-0.00460756
-0.000212092
0.00678894
-0.00124654
-0.00012554
0.00370551
0.0039395
-4.75425e-05
-0.000750731
0.0137358
-3.54252e-06
0.0333437
-0.000264106
0.00104874
-0.011085
-0.000312771
0.0019011
-0.0121354
-0.000263513
0.00301889
-0.0102716
-0.000264032
0.00395926
-0.00770252
-0.000252191
0.00415493
-0.00441281
-0.000195125
0.00324454
-0.000111854
-0.000110888
0.00109346
0.00611226
-8.95869e-06
-0.00176013
0.016439
7.69862e-05
0.0316298
-2.22553e-05
0.00101812
-0.0117589
-0.000190503
0.00152678
-0.0123296
-0.000167065
0.00197192
-0.0104515
-0.000138066
0.00225562
-0.00775901
-0.000118291
0.0020817
-0.00405866
-9.3419e-05
0.00125642
0.000818099
-5.40476e-05
-0.000220634
0.00756819
1.03486e-05
-0.00184801
0.0179117
7.79375e-05
0.0297442
1.92595e-05
0.000723297
-0.0122773
-0.000111255
0.000944757
-0.0123734
-9.38321e-05
0.00113959
-0.0105221
-6.59825e-05
0.00116029
-0.00772308
-3.24541e-05
0.000823273
-0.0037233
-3.10975e-06
5.14415e-05
0.00155735
1.33047e-05
-0.00106838
0.008608
3.85442e-05
-0.00200866
0.018687
8.21876e-05
0.0276726
3.16011e-05
0.000425004
-0.0125885
-6.21203e-05
0.000486983
-0.0123442
-4.91372e-05
0.000523041
-0.0105122
-2.60608e-05
0.000399852
-0.00762093
7.23488e-06
7.45345e-06
-0.00342645
4.42863e-05
-0.000689101
0.00212214
6.27724e-05
-0.00157073
0.00935009
6.77927e-05
-0.00205335
0.0189892
8.93315e-05
0.0255312
4.38648e-05
0.000188126
-0.0127176
-3.39408e-05
0.000169811
-0.0122833
-2.45188e-05
0.000112522
-0.0104478
-6.39968e-06
-8.6035e-05
-0.00746986
2.08913e-05
-0.000496883
-0.00313604
5.72963e-05
-0.00113639
0.00258398
8.61491e-05
-0.00185103
0.00987967
9.05012e-05
-0.00197886
0.0189229
9.59419e-05
0.0234525
4.96197e-05
6.38005e-05
-1.83384e-05
2.9183e-05
-1.20435e-05
-7.82049e-05
2.30207e-06
-0.000309545
2.36309e-05
-0.000713902
5.22867e-05
-0.00127304
8.0952e-05
-0.00177899
9.12613e-05
-0.00163565
8.84413e-05
4.43935e-05
0.00439574
-0.00639377
0.00302464
0.0119999
-0.00940988
0.00269442
0.0161894
-0.00586025
0.00248866
0.0188183
-0.00396229
0.00199594
0.0210257
-0.0030734
0.00130058
0.0234834
-0.00268729
0.000348312
0.0263914
-0.00212698
-0.00113934
0.0246218
0.00354868
-0.0025993
0.0267357
-0.00318606
0.00414384
-0.00948766
-0.00143156
0.00559782
-0.0103573
-0.000715661
0.00858398
-0.00869443
-0.000177217
0.0111938
-0.00654309
8.57366e-06
0.0127513
-0.00461289
1.29666e-05
0.0127688
-0.00259337
-0.000145601
0.0103361
0.000645443
-0.000507184
0.0054689
0.00900204
-0.00092793
0.0334907
-0.002123
0.00167754
-0.0103471
-0.00131302
0.00400221
-0.0117922
-0.00136173
0.00584626
-0.00970646
-0.001227
0.00728868
-0.00730293
-0.00098856
0.0078368
-0.00466898
-0.000704104
0.00690127
-0.00135839
-0.000424985
0.00393115
0.00371824
-0.000150242
-0.000449185
0.0132817
9.71491e-05
0.033179
-0.000401688
0.00104969
-0.0108839
-0.000827779
0.00188531
-0.0121228
-0.000772843
0.00299364
-0.0103289
-0.000752718
0.00395446
-0.00779464
-0.000722293
0.00420503
-0.00453345
-0.000581471
0.00337703
-0.000288292
-0.000353058
0.0013243
0.00581112
-4.91189e-05
-0.00148313
0.0158949
0.00027121
0.0314498
0.00022381
0.00103751
-0.0116248
-0.000489481
0.00155044
-0.0123462
-0.000459022
0.00200031
-0.0105434
-0.000374877
0.00230156
-0.00790179
-0.000313195
0.00216319
-0.00423523
-0.000253535
0.00139675
0.000591077
-0.00016707
-8.30144e-06
0.00722184
4.64632e-06
-0.00163066
0.0173538
0.000241382
0.0295659
0.000272497
0.000736065
-0.0121711
-0.000302605
0.000965385
-0.0124059
-0.000264655
0.00117055
-0.0106318
-0.000183619
0.00121284
-0.00789342
-8.35251e-05
0.000909828
-0.00393797
2.46273e-06
0.00018524
0.00129406
3.48588e-05
-0.000880243
0.00823751
8.83485e-05
-0.00183145
0.0181516
0.000235555
0.0275047
0.000261322
0.000435179
-0.0125009
-0.000169006
0.000503715
-0.0123871
-0.000137408
0.000549872
-0.0106322
-7.24177e-05
0.000446165
-0.00780366
2.08977e-05
8.41923e-05
-0.00365892
0.000127076
-0.000571715
0.00183894
0.000173754
-0.00140972
0.00897145
0.000171847
-0.00190491
0.0184907
0.000245443
0.0253853
0.000258386
0.000194866
-0.0126397
-9.10519e-05
0.00018151
-0.0123319
-6.69624e-05
0.000133075
-0.010573
-1.75039e-05
-4.85019e-05
-0.00765765
5.63019e-05
-0.000432624
-0.00337498
0.000157436
-0.00103857
0.00229321
0.000237824
-0.0017185
0.00950425
0.000237645
-0.00185757
0.0184636
0.000262142
0.0233276
0.000249746
6.8394e-05
-5.36881e-05
3.78403e-05
-3.52865e-05
-6.21674e-05
4.33473e-06
-0.000280124
6.19012e-05
-0.000663331
0.000139692
-0.00119895
0.000220334
-0.00167926
0.000244127
-0.00154021
0.000249332
0.000214257
0.00422319
-0.00628845
0.00511861
0.0116532
-0.00949581
0.0047859
0.0158616
-0.00601931
0.00431453
0.0185846
-0.00410607
0.00337702
0.0208348
-0.00313442
0.00218334
0.0232261
-0.00265887
0.000614105
0.0261716
-0.00206868
-0.00201718
0.0250367
0.00325267
-0.00471804
0.0266674
-0.00481775
0.00358646
-0.00821222
-0.00305827
0.0049215
-0.0101791
-0.00135906
0.00808463
-0.00872472
-0.000630409
0.0108953
-0.00658672
-0.000317109
0.0126488
-0.00466734
-0.000206639
0.0128816
-0.00270913
-0.000327938
0.0107483
0.000334027
-0.000776852
0.00607827
0.00812863
-0.00113413
0.0326217
-0.00199966
0.00166176
-0.00965358
-0.00158295
0.00362597
-0.0117134
-0.00180694
0.00544714
-0.00984277
-0.0019284
0.00706001
-0.00745692
-0.00172772
0.00783935
-0.00485484
-0.00129384
0.00717943
-0.00167526
-0.000798038
0.00453031
0.00308067
-0.000247442
0.000371224
0.0119247
0.000460146
0.0320429
0.000548208
0.00114293
-0.0103811
-0.00128022
0.00187785
-0.0120875
-0.00114575
0.00290595
-0.0105641
-0.00106168
0.00391081
-0.00813754
-0.00104633
0.00430257
-0.00492387
-0.000903527
0.00368744
-0.000798106
-0.000614665
0.00189343
0.00497814
-0.000152369
-0.000766398
0.0143425
0.000513305
0.0303786
0.00112162
0.00106162
-0.0112311
-0.000705745
0.00160249
-0.0124019
-0.000689029
0.00206258
-0.0108536
-0.000548095
0.00240529
-0.00836353
-0.00043092
0.00234889
-0.00477358
-0.000347715
0.00172228
-5.05928e-05
-0.000287879
0.000498418
0.00629603
-8.92854e-05
-0.00109129
0.0158124
0.000361159
0.028579
0.000980731
0.000766559
-0.0118431
-0.000458335
0.00101316
-0.012505
-0.000409517
0.00123897
-0.0109781
-0.000285973
0.00133104
-0.00840877
-0.00013102
0.00110774
-0.00456016
1.21396e-05
0.000492885
0.000570075
2.90366e-05
-0.000443685
0.00727392
4.70577e-05
-0.00140591
0.0167081
0.000302056
0.0266048
0.000829568
0.000456492
-0.0122136
-0.000255902
0.000540083
-0.0125107
-0.000216053
0.00060899
-0.0109979
-0.00012217
0.000550544
-0.00834038
1.05784e-05
0.000257361
-0.00431065
0.000170602
-0.000309843
0.00108551
0.000225507
-0.00105336
0.00801558
0.000173715
-0.00156341
0.0171751
0.00028852
0.0245894
0.000710471
0.000208115
-0.0123755
-0.000138225
0.000205872
-0.012469
-0.000107082
0.000177112
-0.0109483
-3.8729e-05
3.43919e-05
-0.00820249
6.0923e-05
-0.000289955
-0.00403167
0.000202725
-0.00083101
0.00154354
0.00032086
-0.0014441
0.00858735
0.000278973
-0.00159519
0.0172824
0.000305919
0.0226282
0.00061576
7.63357e-05
-8.24073e-05
5.41382e-05
-5.86925e-05
-2.98114e-05
-5.02067e-06
-0.000217863
7.05332e-05
-0.000556169
0.000173099
-0.00105605
0.000295265
-0.00149316
0.000306561
-0.00135132
0.000310125
0.000479823
0.00382203
-0.00458154
0.00614351
0.011192
-0.00898659
0.00648492
0.0155299
-0.00559901
0.00558629
0.018531
-0.00384719
0.00422953
0.0209068
-0.00287822
0.00268386
0.023139
-0.00238386
0.000763398
0.0255698
-0.00186622
-0.00258391
0.0253419
0.0021636
-0.00665589
0.0244683
-0.00394613
0.00196254
-0.00473505
-0.00487092
0.00315595
-0.00926639
-0.00227373
0.00700328
-0.00812866
-0.00192825
0.0102842
-0.00615335
-0.00128008
0.0123978
-0.00438987
-0.000803216
0.012963
-0.00267033
-0.000605203
0.0111969
-0.000140358
-0.000736638
0.00663359
0.00628278
-0.000691129
0.028727
0.000374391
0.00174585
-0.00753883
-0.000670908
0.00296215
-0.0112703
-0.00103854
0.00475892
-0.0102205
-0.00162222
0.00657062
-0.00795415
-0.0017284
0.00763324
-0.00530948
-0.00143116
0.00731332
-0.00221546
-0.000930504
0.00505686
0.00212733
-0.000257838
0.00114827
0.00987408
0.000777395
0.0282901
0.00213302
0.00133084
-0.00905139
-0.00114792
0.00197518
-0.0119936
-0.00107936
0.00287866
-0.011191
-0.000997381
0.0038362
-0.00897988
-0.000976541
0.0042987
-0.00576713
-0.000906622
0.00385909
-0.00165853
-0.000730709
0.00229913
0.00386291
-0.000327328
-0.000246742
0.0124214
0.000511873
0.027207
0.00195794
0.00112851
-0.0102511
-0.000646986
0.00167673
-0.0125213
-0.000717062
0.00212664
-0.0115559
-0.000637027
0.0024893
-0.00929829
-0.000476806
0.00248313
-0.00575835
-0.00035038
0.00194435
-0.00105422
-0.000353083
0.000832316
0.00516504
-0.000279103
-0.000802512
0.0141516
0.000265909
0.0258439
0.00154134
0.000811049
-0.0110379
-0.000485168
0.00106902
-0.0126846
-0.000506701
0.00129285
-0.0116687
-0.000399089
0.00141816
-0.00933319
-0.000222485
0.00125552
-0.00556287
-2.1108e-05
0.000713042
-0.000461936
-2.07711e-05
-0.000171419
0.00620086
-0.000104246
-0.00120086
0.015292
0.000191035
0.0242192
0.00125341
0.000479874
-0.0114817
-0.000293373
0.000569628
-0.0126944
-0.0002973
0.000648106
-0.0116645
-0.000205832
0.000628485
-0.0092426
-6.10699e-05
0.000391731
-0.00528817
0.000132361
-0.000122972
0.000108486
0.000169718
-0.000847714
0.00705799
4.13115e-05
-0.00141132
0.0159651
0.000179097
0.022497
0.00102128
0.000218566
-0.0116764
-0.000162892
0.000220156
-0.0126504
-0.000153322
0.000201848
-0.011598
-8.75248e-05
9.61686e-05
-0.00909496
1.86431e-05
-0.000178046
-0.00497293
0.0001616
-0.000694079
0.00067127
0.000274072
-0.00131046
0.00777402
0.000179377
-0.00150487
0.0162372
0.00022822
0.0207374
0.000870581
7.95181e-05
-8.92975e-05
5.8861e-05
-7.17636e-05
-1.40498e-05
-2.18976e-05
-0.000174278
4.90249e-05
-0.000483887
0.000144702
-0.00100372
0.00029089
-0.00144113
0.00027075
-0.00131723
0.000320424
0.000687956
0.00328912
0.00295806
0.0126863
-0.00289669
0.0170913
0.00120086
0.0205978
0.000730282
0.0228555
0.00042825
0.0240802
-0.000461926
0.0232637
-0.00176887
0.0196672
-0.00306146
0.0157202
-0.00141616
-0.000570813
-0.000426315
-0.00615475
0.00422848
-0.00536244
0.00788235
-0.0041906
0.0106136
-0.00310017
0.011608
-0.00205942
0.00989236
-0.000789912
0.0034156
0.00272332
0.0195099
0.00121827
-0.00252752
0.00161129
-0.00758787
0.00325041
-0.00861505
0.00496348
-0.00762456
0.00614381
-0.00570738
0.00609146
-0.00293544
0.00401451
0.00102997
-0.000555551
0.00807057
0.0210874
0.00112715
-0.00483234
0.00187745
-0.00942561
0.00266283
-0.010399
0.00351165
-0.00944901
0.00386532
-0.00696619
0.00330004
-0.00309968
0.00148401
0.00251921
-0.00179141
0.011858
0.0212539
0.000972392
-0.00646214
0.00153381
-0.0107089
0.00201437
-0.0115191
0.00244962
-0.0103617
0.00249032
-0.00735716
0.0017956
-0.00275762
4.81443e-05
0.00398784
-0.00222347
0.0143955
0.0205717
0.00074249
-0.00769278
0.00102971
-0.0115051
0.00126922
-0.012159
0.00144204
-0.0107577
0.00130998
-0.00724638
0.000599813
-0.00206815
-0.00103438
0.00551782
-0.00237373
0.0159259
0.0194514
0.000439694
-0.008427
0.000546585
-0.0119101
0.000635896
-0.0124548
0.000653921
-0.0108372
0.00041829
-0.00687853
-0.000329168
-0.00115101
-0.00173512
0.00696512
-0.00236918
0.016739
0.0181035
0.000189238
-0.00877958
0.000190079
-0.0120647
0.000178173
-0.0125308
0.000101226
-0.0107418
-0.000172217
-0.00644354
-0.00100127
-4.78313e-05
-0.0021742
0.00831744
-0.00229459
0.0170877
0.0166795
5.69837e-05
2.30526e-05
-4.41075e-05
-0.000184485
-0.000532477
-0.00147009
-0.00219195
-0.00191906
)
;

boundaryField
{
    inlet
    {
        type            calculated;
        value           uniform 0;
    }
    outlet
    {
        type            calculated;
        value           nonuniform List<scalar> 
81
(
-0.00905433
-0.0118296
-0.0124625
-0.0126879
-0.0127447
-0.0126728
-0.0124232
-0.0117491
-0.00892587
-0.0121734
-0.0126566
-0.0124453
-0.0122876
-0.0122259
-0.0122781
-0.0124234
-0.0126167
-0.0121026
-0.0125157
-0.0115268
-0.0108676
-0.0104812
-0.0103473
-0.010475
-0.010855
-0.0115082
-0.0124855
-0.0105546
-0.00892075
-0.00803029
-0.00748216
-0.00728878
-0.00747798
-0.00802309
-0.00891324
-0.0105524
-0.00594291
-0.00463856
-0.00373249
-0.00308304
-0.00283988
-0.00307919
-0.00372677
-0.00463494
-0.00595084
0.00117222
0.00118673
0.00196005
0.00268428
0.00297707
0.00268945
0.00196849
0.0011955
0.00118068
0.00930631
0.00823779
0.00895235
0.00982567
0.0101996
0.0098317
0.00896205
0.00824725
0.00931006
0.0171194
0.0160892
0.0170673
0.0181562
0.0186003
0.0181637
0.0170798
0.016103
0.0171352
0.0154258
0.0191974
0.0210009
0.0216122
0.0217274
0.0216175
0.0210113
0.019212
0.0154484
)
;
    }
    lowerWall
    {
        type            calculated;
        value           uniform 0;
    }
    upperWall
    {
        type            calculated;
        value           uniform 0;
    }
}


// ************************************************************************* //
