/*--------------------------------*- C++ -*----------------------------------*\
  =========                 |
  \\      /  F ield         | OpenFOAM: The Open Source CFD Toolbox
   \\    /   O peration     | Website:  https://openfoam.org
    \\  /    A nd           | Version:  11
     \\/     M anipulation  |
\*---------------------------------------------------------------------------*/
FoamFile
{
    format      ascii;
    class       volScalarField::Internal;
    location    "600";
    object      tmp<kEpsilon:G>;
}
// * * * * * * * * * * * * * * * * * * * * * * * * * * * * * * * * * * * * * //

dimensions      [0 2 -3 0 0 0 0];

value           nonuniform List<scalar> 
729
(
4.31265
8.20934
10.7792
12.7487
14.7392
15.3174
15.1979
9.38126
10.5008
0.383302
0.761436
0.796425
1.57561
2.58077
3.39088
3.49222
1.90189
3.97731
0.0118753
0.0754678
0.140193
0.302957
0.550608
0.79672
0.84655
0.905352
3.24959
0.00581115
0.0209492
0.0460027
0.0678778
0.137016
0.213815
0.285415
1.16762
2.50105
0.0084059
0.0279315
0.0509105
0.0689626
0.0924709
0.0972272
0.187254
1.10975
1.8244
0.0107884
0.032932
0.0624736
0.082856
0.085505
0.0548877
0.191552
0.971607
1.32543
0.0122181
0.0373669
0.0657112
0.0863431
0.0819978
0.0301342
0.210667
0.809598
0.944304
0.0130035
0.0385544
0.0686775
0.088811
0.0764226
0.0136504
0.229482
0.701831
0.71713
0.0133205
0.039128
0.0686029
0.0876539
0.0707404
0.0217125
0.227036
0.525517
0.457079
13.1401
860.826
1099.46
1251.26
1321.31
1304.44
1134.35
893.656
35.0451
0.616252
5.40474
4.80051
5.57077
6.02895
6.81833
7.42624
3.45012
14.9807
0.0501075
0.477041
1.00099
1.18194
0.651594
0.159724
2.37516
12.7478
9.29698
0.0200696
0.0841957
0.0177901
0.0582013
0.0460738
0.247447
2.21319
9.16892
6.24271
0.0280409
0.0328542
0.02094
0.0738241
0.17691
0.611635
2.19933
5.43106
4.13553
0.03099
0.0158709
0.0206195
0.108262
0.313263
0.815587
2.07572
3.20078
2.78922
0.0343241
0.0058403
0.0303859
0.159652
0.42664
0.946791
1.928
1.94122
1.89965
0.0353637
0.00141272
0.0450392
0.214036
0.534328
1.04142
1.79105
1.27192
1.39522
0.0358438
0.000400492
0.0621375
0.268723
0.651417
1.14524
1.5351
0.682328
0.870871
15.3838
1008.58
1301.01
1532.75
1657.32
1657.18
1431.13
1095.29
47.6451
0.648728
7.83935
5.88559
6.28454
6.72714
8.07805
8.75769
5.30657
21.5328
0.0912243
0.694589
1.23704
1.25917
0.556135
0.351234
4.70051
20.0533
13.433
0.0351687
0.0147407
0.0282951
0.0699573
0.0602077
0.489917
3.8656
14.3125
8.98906
0.044397
0.0123759
0.0535759
0.0969417
0.239184
0.871448
3.33328
8.3
5.85637
0.0479818
0.0035938
0.0482363
0.150377
0.404394
1.1019
2.94019
4.75276
3.86477
0.0513155
0.00166737
0.0636997
0.213203
0.547565
1.23352
2.62378
2.85211
2.58997
0.0525254
0.00381768
0.0827862
0.282531
0.675957
1.33504
2.3793
1.87687
1.87625
0.0529934
0.00810425
0.107242
0.352601
0.80708
1.43864
2.01025
1.04001
1.16439
16.4691
1057.47
1374.94
1646.12
1800.56
1810.52
1560.15
1174.21
52.1337
0.66485
8.31961
5.71321
6.36774
7.2942
9.43672
10.5567
5.53772
23.738
0.118441
0.944156
1.51668
1.33344
0.487316
0.537756
6.57145
23.6326
15.0943
0.0446531
0.017463
0.0434362
0.0870121
0.0757373
0.738835
5.33755
16.4398
10.253
0.0533619
0.0132354
0.0637951
0.108113
0.296556
1.14218
4.37969
9.3215
6.70206
0.0582479
0.0045127
0.0644675
0.178116
0.486193
1.36772
3.70687
5.20279
4.40703
0.0610041
0.00579403
0.0863903
0.255292
0.639754
1.47675
3.19966
3.05897
2.94077
0.0628064
0.0110898
0.109816
0.332747
0.775046
1.55934
2.82132
1.99516
2.12019
0.0630555
0.0181078
0.138409
0.411216
0.911113
1.63846
2.31327
1.07975
1.30957
16.9538
1066.92
1393.94
1677.41
1841.32
1854.41
1597.19
1196.11
53.304
0.679512
8.43708
5.57355
6.32441
7.47658
9.95948
11.281
5.45892
24.2076
0.127247
1.03836
1.61121
1.35234
0.460159
0.618554
7.28144
24.5083
15.4762
0.0483036
0.0179192
0.0491361
0.0929075
0.0833479
0.84098
5.89708
16.8715
10.5795
0.0563018
0.0144248
0.0665342
0.113532
0.321902
1.2548
4.77876
9.45899
6.93233
0.0616904
0.00561602
0.0714343
0.18964
0.52014
1.47631
3.99258
5.2125
4.55696
0.064341
0.00804388
0.0947812
0.27104
0.675856
1.57441
3.4058
3.0297
3.03788
0.0661478
0.0143948
0.119977
0.351928
0.812435
1.64672
2.97269
1.962
2.18728
0.0663881
0.0222678
0.149711
0.432671
0.949714
1.71365
2.40977
1.04479
1.34941
16.5301
1058.12
1374.08
1646.05
1800.73
1810.72
1560.34
1174.34
52.1422
0.665537
8.31356
5.64453
6.35106
7.29446
9.4419
10.5608
5.53943
23.7455
0.114409
0.868169
1.49965
1.32483
0.486035
0.53813
6.5756
23.6401
15.1002
0.0426084
0.00572037
0.040816
0.0867426
0.0759218
0.740283
5.34244
16.445
10.2575
0.0531263
0.0139475
0.0621304
0.108064
0.296698
1.14343
4.38348
9.32392
6.70525
0.0580037
0.00446418
0.0639006
0.177816
0.486205
1.36857
3.70952
5.20367
4.40926
0.0608417
0.00564611
0.085916
0.254931
0.639696
1.47741
3.2015
3.05916
2.94234
0.0626332
0.0109242
0.10946
0.332293
0.774847
1.55981
2.82261
1.99511
2.12138
0.062902
0.017882
0.137901
0.41067
0.911003
1.63895
2.31408
1.07957
1.31035
15.0112
1020.5
1298.76
1533.05
1657.61
1657.44
1431.47
1095.32
47.6675
0.675285
8.32057
5.71617
6.28962
6.74227
8.09556
8.76637
5.30612
21.5498
0.0928703
0.687433
1.22329
1.24992
0.557115
0.350687
4.70357
20.0634
13.4452
0.0341841
0.0216248
0.0242468
0.0710462
0.0608383
0.492124
3.87212
14.3219
8.99758
0.0438044
0.01339
0.0505995
0.0972196
0.239383
0.873867
3.33895
8.30558
5.86213
0.0478434
0.0037148
0.0470604
0.149676
0.404312
1.10331
2.94421
4.75559
3.86874
0.0506605
0.00156245
0.0627542
0.212539
0.547448
1.23459
2.62673
2.8535
2.59275
0.0523886
0.00354091
0.0819863
0.281611
0.675585
1.33581
2.3815
1.87764
1.87837
0.0526772
0.0077073
0.10619
0.351494
0.806877
1.43953
2.01177
1.04033
1.1658
11.4252
903.809
1093.05
1251.92
1321.22
1304.19
1134.95
892.29
35.1051
0.673274
6.66912
4.43812
5.69135
6.07289
6.85999
7.44511
3.44003
15.0099
0.0578049
0.598647
0.976798
1.17816
0.657853
0.158678
2.37305
12.7436
9.31304
0.0190126
0.0896852
0.0154289
0.0565929
0.047662
0.249709
2.21676
9.17324
6.25255
0.0269745
0.035156
0.0192154
0.0731767
0.177822
0.614152
2.20364
5.4353
4.1418
0.0305183
0.0171514
0.0193994
0.107275
0.313045
0.816984
2.07886
3.20373
2.79349
0.0338549
0.00661112
0.0289922
0.158912
0.426702
0.947818
1.93046
1.94326
1.90265
0.0349274
0.00175666
0.0441306
0.212862
0.534054
1.04213
1.79298
1.27343
1.39755
0.0354146
0.000476848
0.0607374
0.267349
0.651401
1.1463
1.53659
0.683276
0.872459
2.92333
9.10298
10.675
13.0179
14.8056
15.3918
15.2866
9.32038
10.6058
0.41894
0.521834
0.924116
1.51205
2.58775
3.39611
3.49922
1.90625
3.99937
0.0157541
0.0553206
0.155889
0.301775
0.551852
0.795593
0.847219
0.908928
3.25955
0.00524917
0.0214575
0.0464302
0.0686502
0.137524
0.214139
0.286859
1.17026
2.50653
0.00789018
0.0270007
0.0505849
0.0690361
0.0925296
0.0972941
0.188272
1.1116
1.82809
0.0104207
0.032728
0.0597994
0.0826845
0.0854947
0.054796
0.192051
0.973091
1.32821
0.0118815
0.036788
0.0664696
0.0864348
0.081938
0.0300132
0.210917
0.81088
0.946471
0.0126727
0.0380968
0.0677543
0.0885242
0.076394
0.0134427
0.229649
0.703042
0.718959
0.0129952
0.0386755
0.0682129
0.0874882
0.070783
0.0216902
0.227197
0.5265
0.458399
)
;


// ************************************************************************* //
