/*--------------------------------*- C++ -*----------------------------------*\
  =========                 |
  \\      /  F ield         | OpenFOAM: The Open Source CFD Toolbox
   \\    /   O peration     | Website:  https://openfoam.org
    \\  /    A nd           | Version:  11
     \\/     M anipulation  |
\*---------------------------------------------------------------------------*/
FoamFile
{
    format      ascii;
    class       volVectorField;
    location    "600";
    object      U;
}
// * * * * * * * * * * * * * * * * * * * * * * * * * * * * * * * * * * * * * //

dimensions      [0 1 -1 0 0 0 0];

internalField   nonuniform List<vector> 
729
(
(1.09588 -2.79698 -0.544399)
(0.84012 -1.90403 -0.562414)
(1.46442 -1.28707 -0.559061)
(1.88494 -0.742503 -0.447084)
(2.19173 -0.42271 -0.312298)
(2.35489 -0.236057 -0.150227)
(2.48931 -0.135155 0.131284)
(1.69782 -0.0156564 0.44426)
(3.22765 1.24433 0.33308)
(-0.602807 0.337822 0.154952)
(0.0405553 0.846211 0.32379)
(0.205025 0.418469 0.168159)
(0.633385 0.32136 0.136165)
(0.951564 0.176164 0.0973463)
(1.15602 0.0287737 0.0721991)
(1.1737 -0.144276 0.0731108)
(0.666346 -0.190405 0.0540339)
(0.346269 1.7558 0.0447903)
(-0.198018 -0.0924608 -0.0904907)
(0.116769 -0.67318 0.0821556)
(0.217731 -0.778023 0.102294)
(0.409426 -0.705062 0.141145)
(0.566797 -0.544648 0.139194)
(0.639029 -0.333802 0.106957)
(0.584483 -0.0416489 0.0404656)
(0.209961 0.500394 -0.0821112)
(-0.233101 2.07112 -0.191903)
(0.0473125 -0.401684 0.068869)
(0.144276 -0.86562 0.103635)
(0.212246 -0.964955 0.0774799)
(0.304246 -0.88077 0.0738033)
(0.374015 -0.658497 0.0770646)
(0.374395 -0.314023 0.0774723)
(0.30115 0.182407 0.0392075)
(-0.00782879 1.03896 -0.0855798)
(-0.310138 2.16704 -0.23667)
(0.0610466 -0.609615 0.0435748)
(0.124956 -1.04081 0.0507546)
(0.172238 -1.11759 0.0433218)
(0.220888 -1.01185 0.028668)
(0.249786 -0.737858 0.0214119)
(0.228144 -0.310387 0.0315215)
(0.141244 0.324555 0.0277853)
(-0.127921 1.3523 -0.070346)
(-0.287868 2.11707 -0.209038)
(0.0490409 -0.736424 0.0339297)
(0.0876968 -1.13136 0.0356241)
(0.112029 -1.19635 0.0266882)
(0.13351 -1.06544 0.0117861)
(0.138564 -0.738961 -0.0038316)
(0.108811 -0.249404 -0.000509828)
(0.0135845 0.476852 0.00913154)
(-0.203737 1.53795 -0.0628206)
(-0.253261 2.00831 -0.17627)
(0.0289247 -0.832169 0.0202258)
(0.0477696 -1.18677 0.0193406)
(0.0571136 -1.2399 0.0128291)
(0.0625765 -1.08508 0.00172465)
(0.0552748 -0.708173 -0.0137703)
(0.0176634 -0.16371 -0.017125)
(-0.0823381 0.631773 -0.00602475)
(-0.245895 1.64544 -0.0587744)
(-0.220457 1.8756 -0.147274)
(0.0129682 -0.881118 0.0115055)
(0.0179778 -1.2089 0.0104305)
(0.0172709 -1.25316 0.00476762)
(0.0133216 -1.07632 -0.00331235)
(0.000394014 -0.657672 -0.0153463)
(-0.0475849 -0.0583089 -0.0261618)
(-0.151028 0.764868 -0.0201134)
(-0.267363 1.70543 -0.0592483)
(-0.191085 1.75121 -0.126407)
(0.00583565 -0.901042 0.00781741)
(0.00443156 -1.21595 0.00638186)
(-0.000695233 -1.25305 0.00202502)
(-0.00921745 -1.06107 -0.00429888)
(-0.0266177 -0.608006 -0.0142275)
(-0.0958414 0.0899258 -0.0287511)
(-0.186837 0.91784 -0.031718)
(-0.247238 1.70998 -0.0605473)
(-0.146071 1.55919 -0.100532)
(0.442748 -3.98224 -0.516419)
(0.834942 -2.765 -0.500202)
(1.3372 -1.62956 -0.465697)
(1.72064 -0.942378 -0.365121)
(1.98612 -0.555113 -0.232502)
(2.20306 -0.298966 -0.0542984)
(2.44653 -0.0346896 0.249432)
(2.23328 0.712119 0.562996)
(3.79693 2.52357 0.490487)
(0.0466282 0.884263 0.389986)
(0.172059 0.188175 0.228245)
(0.518886 -0.0888216 0.11163)
(0.896703 -0.155343 0.0564275)
(1.16696 -0.184243 0.0336292)
(1.30679 -0.201138 0.0422255)
(1.28971 -0.179213 0.0911252)
(0.834102 0.220669 0.124258)
(0.83647 2.67004 0.168935)
(-0.00303174 -0.889771 0.1055)
(0.218387 -1.21806 0.167953)
(0.371159 -1.04675 0.224629)
(0.575543 -0.79585 0.209118)
(0.736791 -0.549977 0.159112)
(0.783557 -0.290246 0.097742)
(0.682161 0.0725577 0.0316006)
(0.278065 0.758218 -0.0603554)
(0.107613 2.7839 -0.120452)
(0.0837754 -0.821793 0.115955)
(0.156576 -1.15147 0.115095)
(0.229841 -1.08761 0.109959)
(0.334867 -0.869947 0.11229)
(0.422268 -0.568861 0.100651)
(0.433455 -0.195502 0.0706123)
(0.355175 0.315546 0.0203616)
(0.0641621 1.15097 -0.0606886)
(-0.0526855 2.8223 -0.173832)
(0.0702906 -1.00675 0.0694979)
(0.143001 -1.25153 0.0778953)
(0.187915 -1.15091 0.0651175)
(0.232176 -0.926894 0.0509665)
(0.257329 -0.584933 0.0390696)
(0.236544 -0.136025 0.0334252)
(0.170931 0.462389 0.0153529)
(-0.0407302 1.35688 -0.0324481)
(-0.0809137 2.69252 -0.139223)
(0.0514315 -1.08221 0.0484901)
(0.0948412 -1.26887 0.0490632)
(0.116949 -1.16454 0.037263)
(0.137332 -0.934565 0.0196575)
(0.140878 -0.567282 0.00102188)
(0.108286 -0.0753516 -0.000794584)
(0.0482181 0.572868 0.0017798)
(-0.112899 1.48504 -0.0177225)
(-0.0899787 2.50898 -0.106332)
(0.0293835 -1.14318 0.0274711)
(0.0525348 -1.27493 0.0267166)
(0.060014 -1.16975 0.0175031)
(0.0654588 -0.930778 0.0025717)
(0.0563197 -0.544435 -0.0163257)
(0.0210062 -0.0176652 -0.0213357)
(-0.035823 0.665948 -0.0107437)
(-0.156821 1.56953 -0.0126189)
(-0.0963142 2.32795 -0.0834088)
(0.0137929 -1.1701 0.0148744)
(0.0219237 -1.26984 0.0131334)
(0.0211738 -1.1633 0.00625172)
(0.0164815 -0.914848 -0.00459307)
(0.000210524 -0.509991 -0.019702)
(-0.0372972 0.0412612 -0.0318108)
(-0.095137 0.745876 -0.0220345)
(-0.182664 1.62379 -0.0141156)
(-0.0992144 2.17571 -0.0683404)
(0.00683491 -1.18066 0.00941532)
(0.0080004 -1.26566 0.00718449)
(0.00336721 -1.15493 0.00158199)
(-0.00675119 -0.897193 -0.00635605)
(-0.0283536 -0.472658 -0.0164721)
(-0.0704656 0.107399 -0.0295471)
(-0.123563 0.817051 -0.0269194)
(-0.174187 1.61505 -0.0197751)
(-0.0883588 1.94225 -0.0515436)
(0.427243 -4.01808 -0.359362)
(0.878871 -2.89409 -0.363938)
(1.3763 -1.66616 -0.337444)
(1.7407 -0.958564 -0.267428)
(1.98354 -0.573612 -0.172846)
(2.2073 -0.32575 -0.0455178)
(2.44586 -0.0370778 0.158133)
(2.33034 0.91303 0.370023)
(3.73397 2.94611 0.410413)
(0.319597 0.753149 0.20809)
(0.325767 0.0407075 0.10748)
(0.644185 -0.187621 0.0364286)
(0.976985 -0.238595 0.00938516)
(1.20822 -0.245976 0.00556596)
(1.31622 -0.239929 0.0230404)
(1.25897 -0.178299 0.0677072)
(0.788574 0.353223 0.11956)
(0.794772 2.97922 0.245312)
(0.0339354 -1.17541 0.130978)
(0.26762 -1.31146 0.169331)
(0.446329 -1.04574 0.16234)
(0.637731 -0.778387 0.132785)
(0.771551 -0.529111 0.0952039)
(0.788317 -0.254523 0.0580497)
(0.649886 0.150248 0.0210739)
(0.204353 0.941 -0.0151468)
(0.0582312 3.12237 0.0309711)
(0.0824339 -0.943926 0.09758)
(0.142528 -1.16676 0.0947311)
(0.226714 -1.02517 0.092709)
(0.344984 -0.790397 0.0910859)
(0.430166 -0.495305 0.0749014)
(0.426602 -0.119755 0.0473501)
(0.327644 0.425288 0.009291)
(0.00931189 1.36223 -0.0340575)
(-0.0947273 3.17354 -0.0423906)
(0.0665692 -1.11296 0.058692)
(0.136283 -1.24705 0.0564272)
(0.18178 -1.08301 0.0453839)
(0.226974 -0.835061 0.0366634)
(0.248241 -0.487458 0.0300169)
(0.218882 -0.037413 0.0216172)
(0.142716 0.579078 0.00191277)
(-0.0758887 1.54079 -0.0294733)
(-0.10761 3.00188 -0.0478722)
(0.0481728 -1.16224 0.0370575)
(0.090545 -1.24873 0.0327107)
(0.111931 -1.09381 0.0222143)
(0.132749 -0.841568 0.00920601)
(0.130504 -0.467986 -0.0020063)
(0.0888909 0.0285275 -0.00481431)
(0.0213729 0.68472 -0.00977127)
(-0.137937 1.63748 -0.0291851)
(-0.106578 2.76529 -0.0461863)
(0.0274208 -1.21427 0.0205134)
(0.0508705 -1.2549 0.016861)
(0.0574525 -1.10197 0.00860777)
(0.0611394 -0.840295 -0.00313223)
(0.0471078 -0.445134 -0.016661)
(0.00377143 0.0841182 -0.0220678)
(-0.0576968 0.768215 -0.0209959)
(-0.175142 1.69923 -0.0313014)
(-0.10749 2.54743 -0.0451429)
(0.0127649 -1.23665 0.0107757)
(0.0214026 -1.24988 0.00802012)
(0.019877 -1.0975 0.00181593)
(0.0132825 -0.826011 -0.00729033)
(-0.0077744 -0.415198 -0.0199721)
(-0.0504882 0.134223 -0.030064)
(-0.109838 0.835728 -0.0299638)
(-0.194214 1.73656 -0.0345311)
(-0.106287 2.37352 -0.0435865)
(0.00631619 -1.24494 0.0069128)
(0.00798699 -1.24521 0.00443511)
(0.00280239 -1.08944 -0.000656678)
(-0.00931768 -0.80808 -0.00786279)
(-0.0346453 -0.381382 -0.0176704)
(-0.0767254 0.185531 -0.0281584)
(-0.128731 0.88803 -0.0314615)
(-0.178386 1.71152 -0.0341649)
(-0.0918546 2.12274 -0.0373511)
(0.440818 -4.05909 -0.171862)
(0.9111 -2.9292 -0.171848)
(1.40965 -1.66219 -0.160604)
(1.76845 -0.948924 -0.129969)
(2.00383 -0.571027 -0.084547)
(2.22993 -0.332195 -0.0211699)
(2.46275 -0.0361358 0.075929)
(2.35826 0.975281 0.172656)
(3.66866 3.07324 0.212699)
(0.387108 0.666991 0.0805732)
(0.393965 0.0119732 0.0470605)
(0.703744 -0.192119 0.0126383)
(1.01615 -0.241239 -0.00161703)
(1.22749 -0.248508 -0.00187151)
(1.31663 -0.241567 0.00995814)
(1.23199 -0.171249 0.0356323)
(0.744728 0.40183 0.0687794)
(0.724646 3.02741 0.159368)
(0.0458521 -1.23977 0.081687)
(0.296314 -1.31076 0.093522)
(0.492342 -1.03155 0.0827477)
(0.670705 -0.764904 0.0641058)
(0.782838 -0.514389 0.0448507)
(0.775057 -0.230069 0.0271898)
(0.606616 0.19935 0.0112375)
(0.130906 1.04888 0.00202052)
(-0.0183695 3.19713 0.0531971)
(0.0811578 -0.99408 0.0489771)
(0.139199 -1.16984 0.0497705)
(0.234256 -1.00725 0.0526158)
(0.355267 -0.765025 0.0499891)
(0.429169 -0.466038 0.039124)
(0.407406 -0.0768921 0.0228671)
(0.284804 0.502137 0.00304643)
(-0.0601159 1.51621 -0.0132973)
(-0.165785 3.28389 0.00629988)
(0.0641035 -1.15242 0.0318453)
(0.132797 -1.24092 0.0303012)
(0.176846 -1.05407 0.0255794)
(0.21995 -0.792024 0.0218357)
(0.235154 -0.438586 0.0174159)
(0.194458 0.0221649 0.0103292)
(0.101536 0.66966 -0.00175211)
(-0.131867 1.70154 -0.0144994)
(-0.165068 3.11434 -0.00364981)
(0.0460178 -1.19426 0.0193179)
(0.0871351 -1.23843 0.0171718)
(0.106911 -1.05986 0.0118958)
(0.124941 -0.791781 0.00505202)
(0.115459 -0.40834 -0.000807077)
(0.0641588 0.0987342 -0.00363172)
(-0.0168808 0.781005 -0.00799017)
(-0.18268 1.78859 -0.0157854)
(-0.15167 2.86269 -0.00655151)
(0.0260062 -1.24185 0.0107034)
(0.0484646 -1.2421 0.00873103)
(0.0533127 -1.06548 0.00424324)
(0.0541304 -0.787096 -0.00243819)
(0.0342119 -0.380471 -0.00991706)
(-0.0175876 0.159337 -0.0134465)
(-0.0902726 0.86559 -0.013964)
(-0.211037 1.83765 -0.0172566)
(-0.142962 2.63128 -0.00843744)
(0.0117323 -1.26119 0.00548426)
(0.0199714 -1.23538 0.00397631)
(0.0169607 -1.0598 0.000449666)
(0.00776182 -0.771731 -0.00495454)
(-0.0181958 -0.349584 -0.0122152)
(-0.0675512 0.210184 -0.0179146)
(-0.135288 0.930696 -0.018461)
(-0.222055 1.86251 -0.0186292)
(-0.13377 2.4486 -0.00921922)
(0.0057932 -1.268 0.00369512)
(0.00705693 -1.22975 0.00222867)
(0.000718602 -1.05096 -0.000762682)
(-0.0135858 -0.753238 -0.0051242)
(-0.0428349 -0.316251 -0.0109029)
(-0.0887922 0.258349 -0.0166816)
(-0.145854 0.97578 -0.0185326)
(-0.1981 1.82141 -0.0173504)
(-0.111239 2.1864 -0.00808008)
(0.447487 -4.09887 0.00922354)
(0.92336 -2.94181 0.00302195)
(1.42176 -1.66031 0.00232034)
(1.77939 -0.944522 0.0016926)
(2.01295 -0.568839 0.00136724)
(2.23942 -0.332898 0.00117684)
(2.46934 -0.0343786 0.00104325)
(2.36588 0.992917 0.000809712)
(3.64795 3.10602 0.000225828)
(0.403207 0.646595 -0.00141028)
(0.41329 0.0047423 0.00197256)
(0.721647 -0.191443 0.00218413)
(1.0284 -0.239008 0.00159543)
(1.23377 -0.246675 0.00120135)
(1.31666 -0.240251 0.0009658)
(1.22287 -0.167996 0.000788578)
(0.729295 0.415423 0.000606971)
(0.701058 3.02741 0.000339017)
(0.0512991 -1.25166 -0.0046732)
(0.307818 -1.31123 0.00143061)
(0.507303 -1.02846 0.00174088)
(0.680819 -0.76044 0.00100269)
(0.785431 -0.508779 0.0007068)
(0.768904 -0.221099 0.000581087)
(0.58976 0.216324 0.000477824)
(0.103252 1.08504 0.000358385)
(-0.0467614 3.19849 0.000191541)
(0.0814682 -1.01132 -0.00433416)
(0.139551 -1.17298 0.000387542)
(0.237808 -1.00453 0.00036871)
(0.358538 -0.758883 -2.41017e-05)
(0.427592 -0.457066 2.74966e-05)
(0.398661 -0.0619916 0.000133999)
(0.266799 0.529527 0.000195421)
(-0.0877672 1.56894 0.000197249)
(-0.193348 3.30056 0.000116853)
(0.0636822 -1.1633 -0.00175864)
(0.131602 -1.23822 -0.00108521)
(0.174751 -1.04549 -0.000525114)
(0.216745 -0.778763 -0.000444296)
(0.229287 -0.422686 -0.000318909)
(0.183823 0.0432187 -0.000163874)
(0.0837248 0.703279 -1.55863e-05)
(-0.15503 1.75937 7.33846e-05)
(-0.188186 3.13601 7.16905e-05)
(0.0451287 -1.20346 -0.000838096)
(0.0857622 -1.23464 -0.000442519)
(0.104741 -1.04894 -0.000358575)
(0.121282 -0.77522 -0.000405322)
(0.108768 -0.387751 -0.000392104)
(0.053408 0.124268 -0.00029615)
(-0.0335739 0.817966 -0.000142644)
(-0.201965 1.84472 -2.05297e-05)
(-0.170362 2.88188 3.47796e-05)
(0.0254305 -1.24934 -0.000504207)
(0.0473888 -1.23713 -0.000332665)
(0.051436 -1.0532 -0.00029767)
(0.0509877 -0.768761 -0.000326803)
(0.0284019 -0.357316 -0.000352152)
(-0.0270825 0.187527 -0.000312435)
(-0.104983 0.90404 -0.000198215)
(-0.227296 1.89021 -8.11019e-05)
(-0.15812 2.64728 4.60194e-06)
(0.0113119 -1.26762 -0.000417571)
(0.0192824 -1.2297 -0.000303934)
(0.0156343 -1.04684 -0.000278374)
(0.0052542 -0.752731 -0.000284221)
(-0.0229072 -0.325527 -0.000294815)
(-0.0754228 0.239609 -0.000272373)
(-0.147501 0.969334 -0.000204914)
(-0.235538 1.91132 -0.000111438)
(-0.145974 2.46251 -1.5095e-05)
(0.00547525 -1.2739 -1.26573e-06)
(0.00654037 -1.22372 -6.6408e-05)
(-0.000332314 -1.03767 -0.000113223)
(-0.015639 -0.733942 -0.000153494)
(-0.0466285 -0.291975 -0.000186501)
(-0.0948024 0.287645 -0.000211927)
(-0.154992 1.01315 -0.00018122)
(-0.208674 1.86579 -0.000118774)
(-0.120418 2.19823 -2.58984e-05)
(0.43478 -4.06583 0.205477)
(0.909897 -2.93707 0.180275)
(1.4094 -1.66431 0.165789)
(1.76838 -0.949582 0.133331)
(2.00382 -0.571108 0.0871567)
(2.22999 -0.33214 0.0234149)
(2.46277 -0.0359563 -0.0739146)
(2.35827 0.975524 -0.171148)
(3.66867 3.07342 -0.212476)
(0.39474 0.66333 -0.0835819)
(0.393493 0.00536761 -0.0415891)
(0.704524 -0.193471 -0.00731464)
(1.01604 -0.24147 0.00497772)
(1.22729 -0.248383 0.0042724)
(1.3165 -0.241366 -0.00805974)
(1.23187 -0.170984 -0.0341047)
(0.74452 0.402258 -0.0676605)
(0.724626 3.02791 -0.158919)
(0.0492011 -1.23944 -0.0953769)
(0.297815 -1.31601 -0.0943997)
(0.494264 -1.0336 -0.0800819)
(0.670912 -0.765023 -0.0621836)
(0.78266 -0.514167 -0.0433901)
(0.774843 -0.229744 -0.0260254)
(0.606403 0.199752 -0.0103049)
(0.130641 1.04946 -0.00136295)
(-0.0184846 3.1977 -0.0529705)
(0.0833358 -0.986341 -0.0572938)
(0.13797 -1.16928 -0.0529977)
(0.235807 -1.00732 -0.0531338)
(0.355825 -0.764685 -0.0501811)
(0.429085 -0.465747 -0.039057)
(0.407267 -0.0765285 -0.0226093)
(0.284622 0.502603 -0.00266959)
(-0.0603627 1.5169 0.0136582)
(-0.16593 3.28449 -0.00617182)
(0.0652797 -1.1482 -0.0348079)
(0.133717 -1.23905 -0.0319315)
(0.177276 -1.05382 -0.0265317)
(0.219997 -0.791451 -0.0227142)
(0.235123 -0.438128 -0.0180536)
(0.194369 0.0226134 -0.0106679)
(0.101391 0.670188 0.00171236)
(-0.132064 1.70229 0.0146243)
(-0.165206 3.11493 0.00370736)
(0.045928 -1.19138 -0.0208501)
(0.087396 -1.23707 -0.0181952)
(0.107127 -1.05905 -0.0126526)
(0.124967 -0.791189 -0.00583553)
(0.11547 -0.407858 5.0125e-05)
(0.0641043 0.0992214 0.00304941)
(-0.0169929 0.781581 0.00770791)
(-0.182831 1.78936 0.0157323)
(-0.151784 2.86326 0.00655)
(0.0260963 -1.23993 -0.0116509)
(0.0486518 -1.241 -0.00940963)
(0.0534656 -1.06479 -0.00482761)
(0.0542083 -0.786587 0.001818)
(0.0342529 -0.380014 0.00925243)
(-0.0176061 0.15984 0.012848)
(-0.0903535 0.866194 0.0135819)
(-0.211151 1.83843 0.0170908)
(-0.143053 2.63184 0.0083889)
(0.0117994 -1.25949 -0.00629244)
(0.0201144 -1.23432 -0.00457745)
(0.0171003 -1.05913 -0.000996265)
(0.00787046 -0.771257 0.00440902)
(-0.0181259 -0.349138 0.0116592)
(-0.0675427 0.210687 0.0174006)
(-0.135346 0.931307 0.0180732)
(-0.222147 1.86328 0.0184086)
(-0.133842 2.44915 0.00914198)
(0.00583418 -1.26651 -0.00369039)
(0.00712779 -1.22882 -0.00236296)
(0.000789715 -1.05036 0.00054222)
(-0.0135293 -0.752838 0.00483134)
(-0.042805 -0.315881 0.0105523)
(-0.0887803 0.25886 0.0162832)
(-0.145903 0.976386 0.018192)
(-0.198177 1.82216 0.0171163)
(-0.111294 2.18694 0.007992)
(0.399436 -3.93546 0.412795)
(0.872563 -2.9158 0.377087)
(1.37464 -1.6699 0.342582)
(1.74082 -0.960404 0.270252)
(1.9838 -0.574006 0.174885)
(2.20773 -0.325792 0.047336)
(2.44607 -0.0366319 -0.156386)
(2.33046 0.913463 -0.368915)
(3.73408 2.94611 -0.410836)
(0.364247 0.784261 -0.215655)
(0.321084 0.0156581 -0.0947183)
(0.644458 -0.189268 -0.0286311)
(0.975321 -0.238746 -0.00587959)
(1.20742 -0.245415 -0.00339784)
(1.3159 -0.239391 -0.0213614)
(1.25879 -0.17769 -0.0663818)
(0.788248 0.354088 -0.118731)
(0.794988 2.98015 -0.245437)
(0.062372 -1.1791 -0.157411)
(0.273504 -1.30862 -0.168694)
(0.449311 -1.04908 -0.159276)
(0.636653 -0.778501 -0.130855)
(0.770715 -0.52859 -0.093816)
(0.787727 -0.253811 -0.0570019)
(0.64949 0.151081 -0.0202597)
(0.203948 0.942042 0.0156284)
(0.0582585 3.12353 -0.0311267)
(0.0909902 -0.930591 -0.107902)
(0.146452 -1.16124 -0.0992566)
(0.229106 -1.02654 -0.0942826)
(0.345552 -0.790465 -0.0913734)
(0.429783 -0.495023 -0.0749534)
(0.426282 -0.119106 -0.0472079)
(0.327351 0.426155 -0.00899057)
(0.00894999 1.36345 0.0343067)
(-0.0947788 3.17469 0.042255)
(0.0676903 -1.10275 -0.0613589)
(0.137345 -1.24178 -0.0575976)
(0.182923 -1.08176 -0.0462202)
(0.227177 -0.834132 -0.0374483)
(0.248221 -0.486827 -0.0306797)
(0.218759 -0.0366258 -0.0220004)
(0.14253 0.580015 -0.00198317)
(-0.0761623 1.54209 0.0295335)
(-0.107689 3.00299 0.0477215)
(0.0486848 -1.15623 -0.0383948)
(0.091053 -1.24545 -0.0335997)
(0.112416 -1.09222 -0.0228919)
(0.132875 -0.840568 -0.0098532)
(0.130623 -0.467208 0.00133608)
(0.0888682 0.029375 0.0042771)
(0.0212622 0.685712 0.00950455)
(-0.138123 1.6388 0.0291071)
(-0.106648 2.76637 0.0460174)
(0.0276695 -1.20961 -0.0213515)
(0.0512678 -1.25233 -0.0175145)
(0.0578255 -1.10055 -0.0091201)
(0.0613533 -0.839401 0.00262117)
(0.0472586 -0.444402 0.0161164)
(0.00382002 0.0849625 0.0215621)
(-0.0577467 0.769228 0.0206652)
(-0.175264 1.70054 0.0311402)
(-0.107543 2.54851 0.0449666)
(0.012816 -1.23236 -0.011493)
(0.0217135 -1.24749 -0.00858492)
(0.0202026 -1.09614 -0.00231884)
(0.0135391 -0.825188 0.00682212)
(-0.0075833 -0.414488 0.0195175)
(-0.0503959 0.135047 0.0296453)
(-0.109852 0.83673 0.0296462)
(-0.194304 1.73786 0.0343344)
(-0.106329 2.37459 0.043414)
(0.00646904 -1.24103 -0.00695037)
(0.00815161 -1.24307 -0.00457205)
(0.00297156 -1.08822 0.000455954)
(-0.00917757 -0.807393 0.00761209)
(-0.0345504 -0.380835 0.0173822)
(-0.0766356 0.186361 0.0278315)
(-0.128746 0.889007 0.0311869)
(-0.178464 1.71279 0.0339575)
(-0.091887 2.1238 0.0372019)
(0.284891 -3.58659 0.519012)
(0.823481 -2.83185 0.522332)
(1.33346 -1.63615 0.46865)
(1.72315 -0.94858 0.367404)
(1.98812 -0.557169 0.23412)
(2.20504 -0.300092 0.0556454)
(2.44757 -0.0335755 -0.248052)
(2.23383 0.712794 -0.562528)
(3.79695 2.52243 -0.490797)
(0.172525 1.10175 -0.418959)
(0.135964 0.102698 -0.21632)
(0.511804 -0.0846037 -0.104823)
(0.890721 -0.15535 -0.0545042)
(1.16496 -0.182606 -0.0324849)
(1.30641 -0.199988 -0.0411642)
(1.28976 -0.178008 -0.0901747)
(0.833857 0.222102 -0.12399)
(0.837508 2.67082 -0.169631)
(0.0929463 -0.917431 -0.125203)
(0.230596 -1.23141 -0.189597)
(0.37635 -1.05657 -0.219656)
(0.572062 -0.79695 -0.208438)
(0.734967 -0.549119 -0.158072)
(0.78254 -0.289026 -0.0970041)
(0.681749 0.0739906 -0.0310093)
(0.277767 0.759644 0.0605098)
(0.108242 2.78485 0.119815)
(0.106977 -0.788431 -0.127111)
(0.16363 -1.15175 -0.121848)
(0.234825 -1.0926 -0.111157)
(0.33531 -0.871776 -0.113052)
(0.421938 -0.568878 -0.100969)
(0.433063 -0.194685 -0.0706381)
(0.354976 0.316743 -0.0201422)
(0.0639632 1.1524 0.0607798)
(-0.0521849 2.82331 0.173323)
(0.0737801 -0.986595 -0.0717384)
(0.144264 -1.24559 -0.079621)
(0.189644 -1.14948 -0.0658852)
(0.232864 -0.926428 -0.0516462)
(0.257514 -0.584458 -0.0396785)
(0.23653 -0.135123 -0.0338079)
(0.170907 0.46355 -0.0154166)
(-0.0408359 1.35828 0.0324562)
(-0.0805507 2.69364 0.138823)
(0.0526537 -1.07109 -0.0494984)
(0.0956277 -1.26337 -0.0498246)
(0.117603 -1.16245 -0.0378938)
(0.137748 -0.933598 -0.0202288)
(0.141169 -0.566585 -0.00156401)
(0.108434 -0.0744075 0.000367426)
(0.0483018 0.573996 -0.00197927)
(-0.112921 1.48644 0.0176604)
(-0.0897005 2.51023 0.105991)
(0.0298488 -1.13396 -0.0281487)
(0.053322 -1.27044 -0.0274148)
(0.0607243 -1.16786 -0.0180208)
(0.0658838 -0.929834 -0.00299689)
(0.0566538 -0.543774 0.0159261)
(0.0212439 -0.0167713 0.0209821)
(-0.0356666 0.667012 0.0105259)
(-0.156788 1.57093 0.0125142)
(-0.0960965 2.32932 0.0831221)
(0.0140875 -1.16155 -0.0153979)
(0.0224329 -1.26554 -0.0136018)
(0.021771 -1.16124 -0.00667836)
(0.0169525 -0.913957 0.00423342)
(0.00060182 -0.509359 0.0193906)
(-0.0370112 0.042101 0.0315354)
(-0.0949506 0.746875 0.0218486)
(-0.182618 1.6252 0.0139931)
(-0.0990532 2.17717 0.0681006)
(0.00700649 -1.17261 -0.00948558)
(0.00827155 -1.2617 -0.00730109)
(0.00365193 -1.15312 -0.00173592)
(-0.00649756 -0.896484 0.00617016)
(-0.0281481 -0.472322 0.0162726)
(-0.0701916 0.108234 0.0293178)
(-0.123417 0.818004 0.0267585)
(-0.174164 1.61646 0.0196326)
(-0.0882429 1.94374 0.0513704)
(0.0537738 -2.02988 0.441029)
(1.03451 -2.14539 0.596084)
(1.41512 -1.30764 0.55424)
(1.91618 -0.771711 0.450966)
(2.19652 -0.432412 0.313322)
(2.36372 -0.244036 0.151007)
(2.49368 -0.131784 -0.129178)
(1.69878 -0.0173572 -0.445353)
(3.22745 1.24378 -0.336478)
(-0.0738125 1.03997 -0.37905)
(-0.29715 0.309182 -0.10777)
(0.25158 0.493715 -0.167396)
(0.598095 0.314724 -0.126604)
(0.950697 0.185672 -0.0940653)
(1.15544 0.0327408 -0.0702031)
(1.17579 -0.140724 -0.0721514)
(0.666932 -0.188284 -0.0541377)
(0.351482 1.75496 -0.0451917)
(0.110977 -0.221244 -0.0416925)
(0.0975845 -0.699264 -0.0220685)
(0.254223 -0.808302 -0.107347)
(0.399882 -0.704688 -0.138015)
(0.564561 -0.543509 -0.138813)
(0.637019 -0.330739 -0.10634)
(0.584219 -0.0382597 -0.0399183)
(0.210023 0.501841 0.0822012)
(-0.22989 2.07161 0.19161)
(0.0952092 -0.348967 -0.0940522)
(0.147994 -0.86814 -0.0835385)
(0.226628 -0.973638 -0.0798479)
(0.305204 -0.884671 -0.0732176)
(0.374229 -0.659896 -0.0772855)
(0.373934 -0.312974 -0.0776313)
(0.301355 0.184312 -0.0390473)
(-0.00752097 1.04009 0.0856345)
(-0.307721 2.16797 0.23669)
(0.0669168 -0.578673 -0.0472228)
(0.126618 -1.02534 -0.0489825)
(0.176656 -1.11444 -0.0450195)
(0.22232 -1.01125 -0.0292074)
(0.250614 -0.737859 -0.0217082)
(0.228455 -0.309414 -0.0318487)
(0.141747 0.325876 -0.0278261)
(-0.127506 1.35331 0.0703519)
(-0.286235 2.11847 0.20915)
(0.0504902 -0.718951 -0.0350174)
(0.0887611 -1.12033 -0.0355595)
(0.11379 -1.19243 -0.0267679)
(0.13454 -1.06416 -0.012223)
(0.139323 -0.738614 0.00352538)
(0.109399 -0.248556 0.000236496)
(0.0142272 0.477622 -0.00924985)
(-0.203338 1.53899 0.0627818)
(-0.252163 2.01001 0.176402)
(0.0296472 -0.817764 -0.0207758)
(0.0487335 -1.17824 -0.019828)
(0.0581837 -1.23618 -0.0126133)
(0.0633928 -1.08416 -0.00193439)
(0.0559705 -0.708113 0.013566)
(0.0183931 -0.162961 0.0169702)
(-0.0816569 0.632231 0.00590724)
(-0.245546 1.64664 0.0587136)
(-0.21974 1.87757 0.147408)
(0.0133927 -0.867505 -0.0118275)
(0.0187314 -1.20127 -0.0106769)
(0.0181538 -1.2499 -0.00548801)
(0.0140847 -1.07575 0.00303215)
(0.00118832 -0.657631 0.0151665)
(-0.0467796 -0.0573683 0.0260249)
(-0.150373 0.765213 0.0200212)
(-0.2671 1.70681 0.0591881)
(-0.190645 1.75336 0.126536)
(0.00605498 -0.888165 -0.00791213)
(0.00482888 -1.20887 -0.00647592)
(-0.000230915 -1.25005 -0.0020854)
(-0.00882758 -1.06086 0.00419624)
(-0.026242 -0.608767 0.0140857)
(-0.0950516 0.0906142 0.0285991)
(-0.186343 0.91821 0.0316372)
(-0.247118 1.71158 0.0605007)
(-0.145799 1.56142 0.100689)
)
;

boundaryField
{
    inlet
    {
        type            fixedValue;
        value           uniform (10 0 0);
    }
    outlet
    {
        type            zeroGradient;
    }
    lowerWall
    {
        type            noSlip;
    }
    upperWall
    {
        type            noSlip;
    }
}


// ************************************************************************* //
