/*--------------------------------*- C++ -*----------------------------------*\
  =========                 |
  \\      /  F ield         | OpenFOAM: The Open Source CFD Toolbox
   \\    /   O peration     | Website:  https://openfoam.org
    \\  /    A nd           | Version:  11
     \\/     M anipulation  |
\*---------------------------------------------------------------------------*/
FoamFile
{
    format      ascii;
    class       volScalarField;
    location    "213";
    object      epsilon;
}
// * * * * * * * * * * * * * * * * * * * * * * * * * * * * * * * * * * * * * //

dimensions      [0 2 -3 0 0 0 0];

internalField   nonuniform List<scalar> 
162
(
11.9035
13.2914
74.3953
90.5532
107.43
115.979
133.52
163.241
189.928
0.345065
0.468484
0.396837
0.601614
0.726333
0.991784
3.28929
81.7361
189.228
0.00637472
0.0188749
0.0413622
0.0620482
0.131621
0.383028
1.43466
10.2893
187.281
0.00767517
0.0171127
0.0350154
0.058531
0.142635
0.576214
1.83655
8.23096
188.597
0.00697168
0.0159504
0.0343342
0.059107
0.149478
0.668651
2.16814
8.35298
195.146
0.00722878
0.016064
0.0360349
0.0618251
0.171907
0.877341
2.61808
9.04378
201.597
0.00746012
0.016176
0.0369518
0.0652523
0.187715
1.08584
3.38522
10.4209
211.167
0.00786728
0.0168049
0.0385254
0.0686227
0.20237
1.31007
4.61698
11.3728
215.669
0.00814431
0.0171736
0.0395159
0.0701412
0.209829
1.40479
6.44115
13.0185
224.459
11.9042
13.294
74.3906
90.5586
107.433
115.985
133.523
163.242
189.93
0.341695
0.468044
0.399655
0.601346
0.726514
0.992247
3.28923
81.7388
189.23
0.00812624
0.023372
0.0351535
0.0627543
0.131525
0.383714
1.43471
10.2899
187.282
0.00766008
0.0162576
0.035156
0.0585727
0.143018
0.576664
1.83755
8.23165
188.601
0.00704368
0.0160115
0.0339322
0.0591244
0.149565
0.669164
2.16874
8.35371
195.147
0.00728582
0.0161769
0.0351938
0.0619576
0.171998
0.878171
2.61882
9.04459
201.601
0.00744748
0.0161003
0.0372679
0.0653611
0.187058
1.0869
3.38554
10.4217
211.168
0.00795919
0.0168772
0.0386582
0.0686282
0.204962
1.31027
4.61782
11.3735
215.674
0.00814959
0.0171898
0.039557
0.0702559
0.210198
1.4057
6.44186
13.019
224.46
)
;

boundaryField
{
    inlet
    {
        type            fixedValue;
        value           uniform 14.855;
    }
    outlet
    {
        type            zeroGradient;
    }
    lowerWall
    {
        type            epsilonWallFunction;
        value           nonuniform List<scalar> 
36
(
11.9035
11.9042
0.345065
0.341695
0.00637472
0.00812624
0.00767517
0.00766008
0.00697168
0.00704368
0.00722878
0.00728582
0.00746012
0.00744748
0.00786728
0.00795919
0.00814431
0.00814959
189.928
189.93
189.228
189.23
187.281
187.282
188.597
188.601
195.146
195.147
201.597
201.601
211.167
211.168
215.669
215.674
224.459
224.46
)
;
    }
    upperWall
    {
        type            epsilonWallFunction;
        value           nonuniform List<scalar> 
162
(
11.9035
11.9042
0.345065
0.341695
0.00637472
0.00812624
0.00767517
0.00766008
0.00697168
0.00704368
0.00722878
0.00728582
0.00746012
0.00744748
0.00786728
0.00795919
0.00814431
0.00814959
13.2914
13.294
0.468484
0.468044
0.0188749
0.023372
0.0171127
0.0162576
0.0159504
0.0160115
0.016064
0.0161769
0.016176
0.0161003
0.0168049
0.0168772
0.0171736
0.0171898
74.3953
74.3906
0.396837
0.399655
0.0413622
0.0351535
0.0350154
0.035156
0.0343342
0.0339322
0.0360349
0.0351938
0.0369518
0.0372679
0.0385254
0.0386582
0.0395159
0.039557
90.5532
90.5586
0.601614
0.601346
0.0620482
0.0627543
0.058531
0.0585727
0.059107
0.0591244
0.0618251
0.0619576
0.0652523
0.0653611
0.0686227
0.0686282
0.0701412
0.0702559
107.43
107.433
0.726333
0.726514
0.131621
0.131525
0.142635
0.143018
0.149478
0.149565
0.171907
0.171998
0.187715
0.187058
0.20237
0.204962
0.209829
0.210198
115.979
115.985
0.991784
0.992247
0.383028
0.383714
0.576214
0.576664
0.668651
0.669164
0.877341
0.878171
1.08584
1.0869
1.31007
1.31027
1.40479
1.4057
133.52
133.523
3.28929
3.28923
1.43466
1.43471
1.83655
1.83755
2.16814
2.16874
2.61808
2.61882
3.38522
3.38554
4.61698
4.61782
6.44115
6.44186
163.241
163.242
81.7361
81.7388
10.2893
10.2899
8.23096
8.23165
8.35298
8.35371
9.04378
9.04459
10.4209
10.4217
11.3728
11.3735
13.0185
13.019
189.928
189.93
189.228
189.23
187.281
187.282
188.597
188.601
195.146
195.147
201.597
201.601
211.167
211.168
215.669
215.674
224.459
224.46
)
;
    }
}


// ************************************************************************* //
