/*--------------------------------*- C++ -*----------------------------------*\
  =========                 |
  \\      /  F ield         | OpenFOAM: The Open Source CFD Toolbox
   \\    /   O peration     | Website:  https://openfoam.org
    \\  /    A nd           | Version:  11
     \\/     M anipulation  |
\*---------------------------------------------------------------------------*/
FoamFile
{
    format      ascii;
    class       volScalarField;
    location    "213";
    object      k;
}
// * * * * * * * * * * * * * * * * * * * * * * * * * * * * * * * * * * * * * //

dimensions      [0 2 -2 0 0 0 0];

internalField   nonuniform List<scalar> 
162
(
0.148809
0.1661
0.205009
0.23364
0.262114
0.274571
0.303341
0.346428
0.383009
0.00411734
0.00584069
0.00496766
0.00748674
0.00904455
0.0124297
0.0409823
0.218089
0.381824
0.000132607
0.000272667
0.000435632
0.000757565
0.00159684
0.00484705
0.017758
0.12857
0.379573
9.04046e-05
0.000198104
0.000428683
0.000707632
0.00174599
0.0071001
0.022943
0.102835
0.381068
8.43541e-05
0.000193014
0.000413007
0.000714017
0.0018254
0.00830619
0.0270255
0.104426
0.390002
8.79134e-05
0.000194689
0.000440464
0.000747589
0.00210071
0.0108997
0.0326764
0.112933
0.398458
8.93413e-05
0.000193856
0.000442683
0.000788617
0.00228566
0.0135095
0.0422496
0.130276
0.411038
9.56201e-05
0.00020318
0.000467113
0.000826911
0.002505
0.016292
0.0576968
0.142143
0.416368
9.80762e-05
0.000206984
0.000476516
0.0008476
0.00256882
0.0174839
0.0804846
0.162701
0.428559
0.148806
0.166071
0.205029
0.233652
0.262124
0.274579
0.303348
0.34643
0.383011
0.00417509
0.0058457
0.00491538
0.00750121
0.00904477
0.012432
0.0409925
0.218094
0.381826
0.00014253
0.000203278
0.000477696
0.000751236
0.00160155
0.0048458
0.017771
0.128573
0.379576
7.92169e-05
0.000201684
0.000424147
0.000707989
0.00174872
0.0071094
0.0229519
0.102842
0.381068
8.38104e-05
0.000183069
0.000408247
0.000714033
0.00182804
0.00831059
0.027035
0.104434
0.390005
8.83669e-05
0.000181341
0.000434797
0.000748355
0.00210748
0.0109071
0.032689
0.112942
0.398461
8.94078e-05
0.000186062
0.000448463
0.000789444
0.00229995
0.0135122
0.0422597
0.130287
0.411041
9.52536e-05
0.000204424
0.000466798
0.000830713
0.0024816
0.0163103
0.0576898
0.142148
0.416371
9.81371e-05
0.00020718
0.000476998
0.000848975
0.00257319
0.0174951
0.0804951
0.162712
0.428563
)
;

boundaryField
{
    inlet
    {
        type            fixedValue;
        value           uniform 0.375;
    }
    outlet
    {
        type            zeroGradient;
    }
    lowerWall
    {
        type            kqRWallFunction;
        value           nonuniform List<scalar> 
36
(
0.148809
0.148806
0.00411734
0.00417509
0.000132607
0.00014253
9.04046e-05
7.92169e-05
8.43541e-05
8.38104e-05
8.79134e-05
8.83669e-05
8.93413e-05
8.94078e-05
9.56201e-05
9.52536e-05
9.80762e-05
9.81371e-05
0.383009
0.383011
0.381824
0.381826
0.379573
0.379576
0.381068
0.381068
0.390002
0.390005
0.398458
0.398461
0.411038
0.411041
0.416368
0.416371
0.428559
0.428563
)
;
    }
    upperWall
    {
        type            kqRWallFunction;
        value           nonuniform List<scalar> 
162
(
0.148809
0.148806
0.00411734
0.00417509
0.000132607
0.00014253
9.04046e-05
7.92169e-05
8.43541e-05
8.38104e-05
8.79134e-05
8.83669e-05
8.93413e-05
8.94078e-05
9.56201e-05
9.52536e-05
9.80762e-05
9.81371e-05
0.1661
0.166071
0.00584069
0.0058457
0.000272667
0.000203278
0.000198104
0.000201684
0.000193014
0.000183069
0.000194689
0.000181341
0.000193856
0.000186062
0.00020318
0.000204424
0.000206984
0.00020718
0.205009
0.205029
0.00496766
0.00491538
0.000435632
0.000477696
0.000428683
0.000424147
0.000413007
0.000408247
0.000440464
0.000434797
0.000442683
0.000448463
0.000467113
0.000466798
0.000476516
0.000476998
0.23364
0.233652
0.00748674
0.00750121
0.000757565
0.000751236
0.000707632
0.000707989
0.000714017
0.000714033
0.000747589
0.000748355
0.000788617
0.000789444
0.000826911
0.000830713
0.0008476
0.000848975
0.262114
0.262124
0.00904455
0.00904477
0.00159684
0.00160155
0.00174599
0.00174872
0.0018254
0.00182804
0.00210071
0.00210748
0.00228566
0.00229995
0.002505
0.0024816
0.00256882
0.00257319
0.274571
0.274579
0.0124297
0.012432
0.00484705
0.0048458
0.0071001
0.0071094
0.00830619
0.00831059
0.0108997
0.0109071
0.0135095
0.0135122
0.016292
0.0163103
0.0174839
0.0174951
0.303341
0.303348
0.0409823
0.0409925
0.017758
0.017771
0.022943
0.0229519
0.0270255
0.027035
0.0326764
0.032689
0.0422496
0.0422597
0.0576968
0.0576898
0.0804846
0.0804951
0.346428
0.34643
0.218089
0.218094
0.12857
0.128573
0.102835
0.102842
0.104426
0.104434
0.112933
0.112942
0.130276
0.130287
0.142143
0.142148
0.162701
0.162712
0.383009
0.383011
0.381824
0.381826
0.379573
0.379576
0.381068
0.381068
0.390002
0.390005
0.398458
0.398461
0.411038
0.411041
0.416368
0.416371
0.428559
0.428563
)
;
    }
}


// ************************************************************************* //
