/*--------------------------------*- C++ -*----------------------------------*\
  =========                 |
  \\      /  F ield         | OpenFOAM: The Open Source CFD Toolbox
   \\    /   O peration     | Website:  https://openfoam.org
    \\  /    A nd           | Version:  11
     \\/     M anipulation  |
\*---------------------------------------------------------------------------*/
FoamFile
{
    format      ascii;
    class       volScalarField;
    location    "213";
    object      nut;
}
// * * * * * * * * * * * * * * * * * * * * * * * * * * * * * * * * * * * * * //

dimensions      [0 2 -1 0 0 0 0];

internalField   nonuniform List<scalar> 
162
(
0.000167426
0.000186814
5.08444e-05
5.4254e-05
5.7557e-05
5.85024e-05
6.20241e-05
6.61665e-05
6.95139e-05
4.42155e-06
6.55353e-06
5.59672e-06
8.38513e-06
1.01363e-05
1.40199e-05
4.59551e-05
5.23718e-05
6.93401e-05
2.48264e-07
3.54506e-07
4.12933e-07
8.3244e-07
1.74357e-06
5.52036e-06
1.97825e-05
0.00014459
6.92373e-05
9.58376e-08
2.06401e-07
4.72342e-07
7.69966e-07
1.92354e-06
7.87386e-06
2.57954e-05
0.000115631
6.92968e-05
9.18583e-08
2.10207e-07
4.47127e-07
7.76284e-07
2.00623e-06
9.28638e-06
3.0318e-05
0.000117495
7.01483e-05
9.62251e-08
2.12359e-07
4.84551e-07
8.13585e-07
2.31036e-06
1.21872e-05
3.67053e-05
0.000126922
7.08802e-05
9.62944e-08
2.09087e-07
4.77301e-07
8.57786e-07
2.50477e-06
1.51271e-05
4.74571e-05
0.000146577
7.20081e-05
1.04596e-07
2.21089e-07
5.09729e-07
8.96794e-07
2.7907e-06
1.82348e-05
6.48915e-05
0.000159891
7.23453e-05
1.06296e-07
2.24521e-07
5.17161e-07
9.21831e-07
2.83039e-06
1.95843e-05
9.05118e-05
0.000183005
7.36421e-05
0.000167411
0.000186713
5.08577e-05
5.42565e-05
5.75598e-05
5.85023e-05
6.20256e-05
6.61669e-05
6.95138e-05
4.59129e-06
6.57097e-06
5.4409e-06
8.42133e-06
1.01343e-05
1.40186e-05
4.59787e-05
5.23725e-05
6.93398e-05
2.24992e-07
1.59121e-07
5.84219e-07
8.09378e-07
1.75515e-06
5.50765e-06
1.98108e-05
0.000144588
6.92379e-05
7.373e-08
2.25179e-07
4.6055e-07
7.70195e-07
1.92439e-06
7.88834e-06
2.58013e-05
0.000115637
6.92951e-05
8.97509e-08
1.88383e-07
4.42055e-07
7.7609e-07
2.01087e-06
9.28909e-06
3.03311e-05
0.000117502
7.01488e-05
9.6459e-08
1.82954e-07
4.83447e-07
8.13511e-07
2.32406e-06
1.21921e-05
3.6723e-05
0.00012693
7.08799e-05
9.66015e-08
1.9352e-07
4.85693e-07
8.58155e-07
2.54508e-06
1.51183e-05
4.74752e-05
0.000146592
7.20088e-05
1.02597e-07
2.22847e-07
5.07294e-07
9.04986e-07
2.70417e-06
1.82728e-05
6.4864e-05
0.000159893
7.23445e-05
1.06359e-07
2.24734e-07
5.1767e-07
9.23314e-07
2.83504e-06
1.95966e-05
9.05254e-05
0.000183021
7.36433e-05
)
;

boundaryField
{
    inlet
    {
        type            calculated;
        value           uniform 0.000851986;
    }
    outlet
    {
        type            calculated;
        value           nonuniform List<scalar> 
18
(
1.06296e-07
1.06359e-07
2.24521e-07
2.24734e-07
5.17161e-07
5.1767e-07
9.21831e-07
9.23314e-07
2.83039e-06
2.83504e-06
1.95843e-05
1.95966e-05
9.05118e-05
9.05254e-05
0.000183005
0.000183021
7.36421e-05
7.36433e-05
)
;
    }
    lowerWall
    {
        type            nutkWallFunction;
        Cmu             0.09;
        kappa           0.41;
        E               9.8;
        value           nonuniform List<scalar> 
36
(
0
0
0
0
0
0
0
0
0
0
0
0
0
0
0
0
0
0
3.59189e-06
3.59191e-06
3.57496e-06
3.57498e-06
3.54272e-06
3.54276e-06
3.56414e-06
3.56414e-06
3.69118e-06
3.69122e-06
3.80989e-06
3.80993e-06
3.98385e-06
3.98389e-06
4.05664e-06
4.05667e-06
4.22112e-06
4.22118e-06
)
;
    }
    upperWall
    {
        type            nutkWallFunction;
        Cmu             0.09;
        kappa           0.41;
        E               9.8;
        value           nonuniform List<scalar> 
162
(
0
0
0
0
0
0
0
0
0
0
0
0
0
0
0
0
0
0
0
0
0
0
0
0
0
0
0
0
0
0
0
0
0
0
0
0
5.91406e-07
5.91819e-07
0
0
0
0
0
0
0
0
0
0
0
0
0
0
0
0
1.15492e-06
1.15515e-06
0
0
0
0
0
0
0
0
0
0
0
0
0
0
0
0
1.67712e-06
1.67731e-06
0
0
0
0
0
0
0
0
0
0
0
0
0
0
0
0
1.89529e-06
1.89542e-06
0
0
0
0
0
0
0
0
0
0
0
0
0
0
0
0
2.37828e-06
2.3784e-06
0
0
0
0
0
0
0
0
0
0
0
0
0
0
0
0
3.05468e-06
3.05472e-06
8.54135e-07
8.54235e-07
0
0
0
0
0
0
0
0
0
0
0
0
0
0
3.59189e-06
3.59191e-06
3.57496e-06
3.57498e-06
3.54272e-06
3.54276e-06
3.56414e-06
3.56414e-06
3.69118e-06
3.69122e-06
3.80989e-06
3.80993e-06
3.98385e-06
3.98389e-06
4.05664e-06
4.05667e-06
4.22112e-06
4.22118e-06
)
;
    }
}


// ************************************************************************* //
