/*--------------------------------*- C++ -*----------------------------------*\
  =========                 |
  \\      /  F ield         | OpenFOAM: The Open Source CFD Toolbox
   \\    /   O peration     | Website:  https://openfoam.org
    \\  /    A nd           | Version:  11
     \\/     M anipulation  |
\*---------------------------------------------------------------------------*/
FoamFile
{
    format      ascii;
    class       volScalarField;
    location    "213";
    object      p;
}
// * * * * * * * * * * * * * * * * * * * * * * * * * * * * * * * * * * * * * //

dimensions      [0 2 -2 0 0 0 0];

internalField   nonuniform List<scalar> 
162
(
-6.37202
-1.72652
0.0631356
0.537476
1.07275
1.31484
2.95483
12.2589
40.9503
-0.802472
-0.548698
0.0843868
0.506755
0.859912
0.949368
1.27213
2.71659
13.5444
-0.526253
-0.182301
0.148665
0.384489
0.606808
0.676842
0.685498
-0.104
1.82677
-0.213168
-0.101952
0.101572
0.262423
0.410269
0.414184
0.396118
-0.0787276
1.57633
-0.138527
-0.0584893
0.0642929
0.161353
0.255902
0.239089
0.286317
-0.0455849
2.11708
-0.085108
-0.044105
0.0241567
0.0789493
0.125289
0.0557515
0.0930269
-0.332418
1.65515
-0.0604733
-0.0374452
-0.00479968
0.0173916
0.0100009
-0.129405
-0.147384
-0.582422
1.0402
-0.0453244
-0.0357149
-0.0242264
-0.0186391
-0.0551095
-0.199003
-0.264693
-0.626007
0.645508
-0.0275808
-0.026713
-0.0281301
-0.0258063
-0.0435678
-0.0578444
-0.115725
-0.376702
0.245667
-6.37227
-1.72687
0.0629405
0.537569
1.07309
1.31517
2.95495
12.2588
40.9503
-0.802348
-0.548726
0.0841981
0.506602
0.859951
0.949452
1.27211
2.71654
13.5444
-0.526202
-0.182338
0.14854
0.384361
0.606755
0.676787
0.685435
-0.104017
1.82684
-0.213143
-0.101968
0.101485
0.262301
0.410174
0.414087
0.396039
-0.0787609
1.57635
-0.138515
-0.0584976
0.0642379
0.161273
0.255834
0.239033
0.28627
-0.0456099
2.11705
-0.0851026
-0.0441092
0.0241294
0.0789187
0.125271
0.0557496
0.0930225
-0.332401
1.65512
-0.0604716
-0.0374465
-0.00480554
0.0173973
0.0100201
-0.12938
-0.147346
-0.582343
1.04019
-0.0453256
-0.0357149
-0.02422
-0.0186196
-0.0550863
-0.199001
-0.264673
-0.625941
0.645497
-0.0275817
-0.0267139
-0.0281297
-0.0258042
-0.0435656
-0.0578415
-0.115732
-0.376735
0.245654
)
;

boundaryField
{
    inlet
    {
        type            zeroGradient;
    }
    outlet
    {
        type            fixedValue;
        value           uniform 0;
    }
    lowerWall
    {
        type            zeroGradient;
    }
    upperWall
    {
        type            zeroGradient;
    }
}


// ************************************************************************* //
