/*--------------------------------*- C++ -*----------------------------------*\
  =========                 |
  \\      /  F ield         | OpenFOAM: The Open Source CFD Toolbox
   \\    /   O peration     | Website:  https://openfoam.org
    \\  /    A nd           | Version:  11
     \\/     M anipulation  |
\*---------------------------------------------------------------------------*/
FoamFile
{
    format      ascii;
    class       surfaceScalarField;
    location    "213";
    object      phi;
}
// * * * * * * * * * * * * * * * * * * * * * * * * * * * * * * * * * * * * * //

dimensions      [0 3 -1 0 0 0 0];

internalField   nonuniform List<scalar> 
369
(
2.61549e-06
-2.61549e-06
7.22392e-12
4.01615e-06
-1.4007e-06
9.10216e-11
4.86686e-06
-8.50742e-07
1.16315e-10
5.53636e-06
-6.69523e-07
7.7146e-11
6.12421e-06
-5.87829e-07
2.32397e-11
6.6313e-06
-5.06995e-07
-9.28154e-12
6.46491e-06
1.66544e-07
-1.85551e-11
4.50055e-06
1.96444e-06
-1.07855e-11
4.5006e-06
-7.34224e-12
-1.38095e-06
-1.23447e-06
3.14045e-12
-1.44844e-06
-1.33314e-06
1.30841e-10
-1.18715e-06
-1.11194e-06
1.72921e-10
-9.03028e-07
-9.53572e-07
1.51137e-10
-4.87222e-07
-1.00346e-06
5.4949e-11
1.43029e-07
-1.13688e-06
2.96881e-11
9.11162e-07
-6.01192e-07
7.89633e-11
8.91901e-07
1.98385e-06
2.56242e-11
5.39256e-06
-8.0734e-12
-1.70623e-07
-1.06371e-06
-2.53233e-11
-2.32788e-07
-1.27073e-06
2.91653e-12
-1.70689e-07
-1.17387e-06
1.22302e-10
-4.95536e-08
-1.07467e-06
1.55557e-10
1.58658e-07
-1.21163e-06
8.89858e-11
4.23351e-07
-1.40144e-06
7.32707e-11
5.69737e-07
-7.47434e-07
1.04753e-10
6.55215e-07
1.89843e-06
4.73061e-11
6.0478e-06
-5.29193e-12
-1.94985e-07
-8.6859e-07
-3.70959e-11
-2.31942e-07
-1.23361e-06
-1.30209e-11
-1.57164e-07
-1.24858e-06
8.15098e-11
-3.45184e-08
-1.19732e-06
6.97549e-11
1.45236e-07
-1.39142e-06
5.6063e-11
3.26213e-07
-1.5824e-06
4.83157e-11
2.61886e-07
-6.83089e-07
8.32659e-11
3.16451e-07
1.84383e-06
6.48474e-11
6.36425e-06
7.30011e-13
-7.34679e-08
-7.95041e-07
-1.65062e-11
-7.94847e-08
-1.22752e-06
-3.84693e-12
-2.43697e-08
-1.30368e-06
1.82275e-11
6.55413e-08
-1.2873e-06
2.3946e-11
1.98827e-07
-1.52479e-06
1.63099e-11
3.09254e-07
-1.69286e-06
1.57526e-11
1.61615e-07
-5.35471e-07
4.11916e-11
3.59813e-09
2.00178e-06
6.76261e-11
6.36785e-06
7.90802e-12
-2.72049e-08
-7.67793e-07
-8.18192e-12
-1.87448e-08
-1.23596e-06
-1.10295e-11
2.88088e-08
-1.35128e-06
-3.66592e-13
1.04853e-07
-1.36343e-06
-1.26208e-11
2.21452e-07
-1.64145e-06
-1.19521e-11
3.11627e-07
-1.78306e-06
-1.66987e-12
1.67558e-07
-3.91426e-07
3.55425e-12
-9.47369e-08
2.26402e-06
5.36178e-11
6.2731e-06
1.16252e-11
1.82903e-09
-7.69604e-07
-3.55822e-12
1.97167e-08
-1.25385e-06
-1.2101e-11
5.79044e-08
-1.38952e-06
-1.21585e-11
1.16218e-07
-1.4218e-06
-2.85953e-11
2.16181e-07
-1.74146e-06
-1.09174e-11
2.90232e-07
-1.85714e-06
-4.50686e-12
1.40909e-07
-2.42134e-07
-2.51733e-11
-1.06521e-07
2.5114e-06
2.54866e-11
6.16656e-06
1.06671e-11
1.72596e-08
-7.86857e-07
-9.89308e-13
3.63482e-08
-1.27295e-06
-1.19235e-11
6.33133e-08
-1.41653e-06
-1.82578e-11
1.01287e-07
-1.45981e-06
-2.57115e-11
1.70464e-07
-1.81066e-06
-1.45004e-11
2.20163e-07
-1.90688e-06
3.58451e-12
4.68958e-08
-6.89126e-08
-1.76e-11
-1.07744e-07
2.66601e-06
1.58746e-11
6.0588e-06
9.57219e-12
2.4007e-08
-2.77194e-12
4.26863e-08
-1.29419e-11
6.51461e-08
-1.45349e-11
8.72289e-08
-1.47916e-11
1.11785e-07
-8.72677e-12
8.01212e-08
1.19631e-11
-1.04971e-07
7.48614e-12
-5.71447e-08
2.49004e-11
1.10645e-11
2.61553e-06
-2.61551e-06
4.01617e-06
-1.4005e-06
4.86693e-06
-8.50578e-07
5.53646e-06
-6.69403e-07
6.12431e-06
-5.87782e-07
6.63138e-06
-5.06991e-07
6.46496e-06
1.66517e-07
4.50058e-06
1.96443e-06
4.50059e-06
-1.38122e-06
-1.23421e-06
-1.44871e-06
-1.33273e-06
-1.18738e-06
-1.11155e-06
-9.03183e-07
-9.53311e-07
-4.87231e-07
-1.00351e-06
1.43062e-07
-1.13698e-06
9.11198e-07
-6.0127e-07
8.91934e-07
1.98382e-06
5.39254e-06
-1.70616e-07
-1.06351e-06
-2.32857e-07
-1.27032e-06
-1.70817e-07
-1.17331e-06
-4.96853e-08
-1.07419e-06
1.58611e-07
-1.21162e-06
4.23377e-07
-1.40154e-06
5.69761e-07
-7.47421e-07
6.55234e-07
1.89844e-06
6.04777e-06
-1.94982e-07
-8.68487e-07
-2.32025e-07
-1.23319e-06
-1.57253e-07
-1.24793e-06
-3.4612e-08
-1.19674e-06
1.45198e-07
-1.39137e-06
3.26193e-07
-1.58244e-06
2.61864e-07
-6.82962e-07
3.16457e-07
1.84392e-06
6.36423e-06
-7.34776e-08
-7.94979e-07
-7.95409e-08
-1.22709e-06
-2.44467e-08
-1.30302e-06
6.54574e-08
-1.28668e-06
1.98784e-07
-1.52472e-06
3.09201e-07
-1.69285e-06
1.61553e-07
-5.35267e-07
3.59247e-09
2.00196e-06
6.36783e-06
-2.72187e-08
-7.67748e-07
-1.87947e-08
-1.23553e-06
2.87401e-08
-1.3506e-06
1.04781e-07
-1.36279e-06
2.21413e-07
-1.6414e-06
3.11565e-07
-1.78301e-06
1.67486e-07
-3.91205e-07
-9.4752e-08
2.26424e-06
6.27309e-06
1.81666e-09
-7.69562e-07
1.96728e-08
-1.25342e-06
5.78424e-08
-1.38883e-06
1.16151e-07
-1.42119e-06
2.16151e-07
-1.74144e-06
2.9019e-07
-1.85708e-06
1.40858e-07
-2.41937e-07
-1.06537e-07
2.51165e-06
6.16656e-06
1.72504e-08
-7.86816e-07
3.63118e-08
-1.27252e-06
6.32591e-08
-1.41583e-06
1.01229e-07
-1.45922e-06
1.70432e-07
-1.81068e-06
2.20145e-07
-1.90682e-06
4.68663e-08
-6.87089e-08
-1.07755e-07
2.66628e-06
6.05882e-06
2.40002e-08
4.2655e-08
6.50972e-08
8.71739e-08
1.11746e-07
8.00926e-08
-1.05044e-07
-5.71678e-08
)
;

boundaryField
{
    inlet
    {
        type            calculated;
        value           uniform 0;
    }
    outlet
    {
        type            calculated;
        value           nonuniform List<scalar> 
18
(
-8.10861e-07
-8.10819e-07
-1.29162e-06
-1.29119e-06
-1.43898e-06
-1.43829e-06
-1.48189e-06
-1.48131e-06
-1.8352e-06
-1.83526e-06
-1.87523e-06
-1.87516e-06
1.16148e-07
1.16428e-07
2.61816e-06
2.61843e-06
6.00165e-06
6.00166e-06
)
;
    }
    lowerWall
    {
        type            calculated;
        value           uniform 0;
    }
    upperWall
    {
        type            calculated;
        value           uniform 0;
    }
}


// ************************************************************************* //
