/*--------------------------------*- C++ -*----------------------------------*\
  =========                 |
  \\      /  F ield         | OpenFOAM: The Open Source CFD Toolbox
   \\    /   O peration     | Website:  https://openfoam.org
    \\  /    A nd           | Version:  11
     \\/     M anipulation  |
\*---------------------------------------------------------------------------*/
FoamFile
{
    format      ascii;
    class       volScalarField::Internal;
    location    "213";
    object      tmp<kEpsilon:G>;
}
// * * * * * * * * * * * * * * * * * * * * * * * * * * * * * * * * * * * * * //

dimensions      [0 2 -3 0 0 0 0];

value           nonuniform List<scalar> 
162
(
0
0
114.852
151.219
187.526
210.461
241.677
232.529
289.139
0
0
0
0
0
0
0
62.0576
263.582
0
0
0
0
0
0
0
0
300.7
0
0
0
0
0
0
0
0
299.625
0
0
0
0
0
0
0
0
298.586
0
0
0
0
0
0
0
0
298.817
0
0
0
0
0
0
0
0
301.788
0
0
0
0
0
0
0
0
300.16
0
0
0
0
0
0
0
0
299.842
0
0
114.849
151.227
187.533
210.471
241.683
232.532
289.141
0
0
0
0
0
0
0
62.0583
263.584
0
0
0
0
0
0
0
0
300.7
0
0
0
0
0
0
0
0
299.627
0
0
0
0
0
0
0
0
298.587
0
0
0
0
0
0
0
0
298.82
0
0
0
0
0
0
0
0
301.788
0
0
0
0
0
0
0
0
300.165
0
0
0
0
0
0
0
0
299.843
)
;


// ************************************************************************* //
