/*--------------------------------*- C++ -*----------------------------------*\
  =========                 |
  \\      /  F ield         | OpenFOAM: The Open Source CFD Toolbox
   \\    /   O peration     | Website:  https://openfoam.org
    \\  /    A nd           | Version:  11
     \\/     M anipulation  |
\*---------------------------------------------------------------------------*/
FoamFile
{
    format      ascii;
    class       volVectorField;
    location    "213";
    object      U;
}
// * * * * * * * * * * * * * * * * * * * * * * * * * * * * * * * * * * * * * //

dimensions      [0 1 -1 0 0 0 0];

internalField   nonuniform List<vector> 
162
(
(2.36555 -1.53231 0.28268)
(3.49893 -1.26446 0.345319)
(4.41764 -0.700258 0.289726)
(5.22645 -0.397706 0.245459)
(5.86609 -0.237954 0.203332)
(6.29348 -0.143181 0.165478)
(6.64376 -0.0812857 0.138887)
(5.65921 0.291399 0.0833798)
(6.34848 1.04119 -0.0911392)
(-1.33263 -2.32931 0.000861591)
(-1.44457 -1.3309 0.00520792)
(-1.35497 -1.00674 -0.0151665)
(-1.04468 -0.921378 0.000528443)
(-0.707099 -0.93888 0.014234)
(-0.417466 -0.92337 0.0351096)
(0.363334 -0.0870131 0.00554686)
(0.587783 2.20705 0.157879)
(3.33441 4.84044 -0.0796634)
(-0.00478198 -1.00395 0.0114279)
(-0.214429 -1.37734 0.00428829)
(-0.223993 -1.17544 0.00758544)
(-0.143654 -1.00737 0.0070358)
(0.0901026 -1.09785 0.00779379)
(0.19302 -1.31945 0.0357806)
(0.892368 -0.796501 -0.0617634)
(-0.391718 2.2846 0.132926)
(2.22025 6.37203 -0.0471438)
(-0.159993 -1.0169 0.000762767)
(-0.21308 -1.23451 0.0015401)
(-0.210201 -1.21007 0.00146107)
(-0.113189 -1.14889 0.00254608)
(0.0825575 -1.31843 0.00670765)
(0.170102 -1.50205 0.0281954)
(0.643006 -0.668335 -0.0708327)
(-0.632211 1.91295 0.07671)
(1.72222 6.47019 -0.0292495)
(-0.0511316 -0.804093 0.00246288)
(-0.0717876 -1.23391 0.00193634)
(-0.0644791 -1.28307 0.00285215)
(0.00792311 -1.24479 0.00311817)
(0.151762 -1.45818 0.00780454)
(0.201951 -1.63945 0.0266546)
(0.586649 -0.597948 -0.0797705)
(-0.850332 1.8318 0.0525904)
(1.43248 6.37781 -0.0199096)
(-0.0270181 -0.781225 0.0010123)
(-0.0155619 -1.22797 0.00189776)
(-0.00815703 -1.32883 0.00281989)
(0.0638157 -1.33022 0.00290893)
(0.17165 -1.5889 0.00878297)
(0.220519 -1.74775 0.0242919)
(0.635657 -0.485761 -0.0780874)
(-0.88512 2.11053 0.0470324)
(1.20175 6.30145 -0.0121019)
(-0.00630404 -0.764151 0.00108343)
(0.0189253 -1.2449 0.00195309)
(0.027042 -1.37313 0.0030039)
(0.0939138 -1.39775 0.00296921)
(0.160652 -1.70196 0.00971877)
(0.216764 -1.84236 0.0215624)
(0.602445 -0.382759 -0.0694281)
(-0.822375 2.39401 0.0463674)
(1.00589 6.21964 -0.00402666)
(0.00395323 -0.781416 0.00102853)
(0.0349748 -1.26687 0.00206322)
(0.0400852 -1.40762 0.00312909)
(0.096487 -1.44666 0.00303)
(0.118557 -1.78664 0.0102954)
(0.18277 -1.89072 0.0182171)
(0.460017 -0.207245 -0.0519728)
(-0.766627 2.61919 0.0502258)
(0.851345 6.12857 0.00290586)
(0.00790101 -0.800907 0.00116936)
(0.0407294 -1.28413 0.00214583)
(0.043693 -1.4299 0.00322261)
(0.0900841 -1.47334 0.00311324)
(0.081045 -1.82634 0.0105086)
(0.147807 -1.87808 0.0151683)
(0.158539 0.177435 -0.0393847)
(-0.636379 2.68477 0.0451656)
(0.682675 5.9952 0.0146906)
(2.36565 -1.53238 -0.282716)
(3.49891 -1.2644 -0.345176)
(4.41768 -0.700208 -0.28952)
(5.22656 -0.397675 -0.245302)
(5.8662 -0.237918 -0.203252)
(6.29357 -0.143149 -0.165464)
(6.64382 -0.0812543 -0.138909)
(5.65926 0.29142 -0.0834024)
(6.34849 1.04119 0.0911292)
(-1.33282 -2.32911 -0.000864154)
(-1.44489 -1.33052 -0.00494734)
(-1.35525 -1.00645 0.0154505)
(-1.04489 -0.921206 -0.000307938)
(-0.70713 -0.938884 -0.0141271)
(-0.417421 -0.923434 -0.035008)
(0.363343 -0.087102 -0.00539653)
(0.587826 2.20702 -0.157838)
(3.33441 4.84043 0.0796511)
(-0.00478005 -1.00373 -0.0114263)
(-0.214466 -1.37692 -0.00431094)
(-0.224092 -1.17494 -0.00741766)
(-0.143811 -1.00697 -0.00680473)
(0.0900217 -1.09789 -0.00765384)
(0.192994 -1.31958 -0.035662)
(0.892415 -0.79658 0.0619353)
(-0.391674 2.28456 -0.132833)
(2.22023 6.372 0.0471372)
(-0.159972 -1.01678 -0.000808198)
(-0.21313 -1.23409 -0.00158122)
(-0.210295 -1.20945 -0.0013335)
(-0.113295 -1.14836 -0.00247343)
(0.0824952 -1.31839 -0.00664753)
(0.170081 -1.50211 -0.0281412)
(0.642982 -0.668238 0.0709492)
(-0.632204 1.913 -0.0765852)
(1.7222 6.47016 0.0292481)
(-0.0511239 -0.804015 -0.0024827)
(-0.0718199 -1.23349 -0.00194665)
(-0.0645591 -1.28241 -0.00284095)
(0.00783637 -1.24416 -0.00311456)
(0.151694 -1.4581 -0.00780352)
(0.201929 -1.63945 -0.0266455)
(0.586583 -0.597772 0.0798195)
(-0.850368 1.83194 -0.05246)
(1.43246 6.37779 0.0199155)
(-0.027017 -0.781174 -0.00102178)
(-0.0155919 -1.22754 -0.00191877)
(-0.00822911 -1.32815 -0.00283051)
(0.0637465 -1.32957 -0.00294744)
(0.171585 -1.58882 -0.00881048)
(0.220502 -1.74771 -0.0242961)
(0.635588 -0.485529 0.0780908)
(-0.88519 2.11074 -0.0469186)
(1.20174 6.30144 0.0121147)
(-0.00630482 -0.76411 -0.00108791)
(0.0188998 -1.24447 -0.00197635)
(0.026979 -1.37244 -0.0030278)
(0.0938543 -1.39712 -0.00301956)
(0.160588 -1.70193 -0.00972308)
(0.216749 -1.8423 -0.0215627)
(0.602426 -0.382544 0.0694151)
(-0.822453 2.39427 -0.0462939)
(1.00588 6.21964 0.00404138)
(0.00395328 -0.781376 -0.00103191)
(0.0349553 -1.26644 -0.00208738)
(0.0400322 -1.40693 -0.00316272)
(0.0964358 -1.44605 -0.00307177)
(0.118495 -1.78664 -0.0103086)
(0.182754 -1.89066 -0.018204)
(0.46003 -0.207097 0.051973)
(-0.766688 2.61942 -0.0501786)
(0.851341 6.12857 -0.00289064)
(0.00790252 -0.800864 -0.00117536)
(0.0407141 -1.28369 -0.00217205)
(0.0436456 -1.42921 -0.00325157)
(0.0900355 -1.47276 -0.00314224)
(0.0809821 -1.8264 -0.0105255)
(0.147793 -1.87801 -0.0151437)
(0.158475 0.177716 0.0394057)
(-0.636433 2.68505 -0.0451213)
(0.682673 5.99521 -0.0146719)
)
;

boundaryField
{
    inlet
    {
        type            fixedValue;
        value           uniform (10 0 0);
    }
    outlet
    {
        type            zeroGradient;
    }
    lowerWall
    {
        type            noSlip;
    }
    upperWall
    {
        type            noSlip;
    }
}


// ************************************************************************* //
