/*--------------------------------*- C++ -*----------------------------------*\
| =========                 |                                                 |
| \\      /  F ield         | OpenFOAM: The Open Source CFD Toolbox           |
|  \\    /   O peration     | Version:  2306                                  |
|   \\  /    A nd           | Website:  www.openfoam.com                      |
|    \\/     M anipulation  |                                                 |
\*---------------------------------------------------------------------------*/
FoamFile
{
    version     2.0;
    format      ascii;
    arch        "LSB;label=32;scalar=64";
    class       volScalarField;
    location    "1.3";
    object      p;
}
// * * * * * * * * * * * * * * * * * * * * * * * * * * * * * * * * * * * * * //

dimensions      [0 2 -2 0 0 0 0];

internalField   nonuniform List<scalar> 
288632
(
40.3266
40.3186
40.3273
40.3468
40.3747
40.4099
40.4517
40.491
40.584
40.4385
40.7781
40.5576
40.6739
0.0756317
0.194771
-0.19731
0.071259
-0.0215584
-0.0196866
-0.0139918
-0.00987897
-0.00670249
-0.00425645
-0.002766
-0.00108242
40.3205
40.3168
40.3263
40.346
40.3739
40.4091
40.451
40.4905
40.5831
40.4381
40.7771
40.5564
40.6737
0.0754837
0.19544
-0.198394
0.0707883
-0.0222102
-0.0202968
-0.0145092
-0.010303
-0.00703198
-0.00449093
-0.00290728
-0.00113099
40.3169
40.3144
40.3244
40.3441
40.3721
40.4074
40.4495
40.4892
40.581
40.4381
40.7755
40.5553
40.6737
0.0743147
0.192934
-0.200319
0.0690341
-0.0236827
-0.0215379
-0.015553
-0.0111546
-0.00769183
-0.00496019
-0.00318817
-0.00122459
40.3128
40.3112
40.3216
40.3414
40.3694
40.4048
40.447
40.4872
40.5778
40.438
40.7727
40.5544
40.6735
0.0723047
0.191492
-0.202806
0.0669244
-0.025747
-0.023366
-0.017104
-0.0124211
-0.00867294
-0.00565775
-0.00360521
-0.0013632
40.3085
40.3074
40.318
40.3379
40.3659
40.4013
40.4437
40.4846
40.5735
40.4377
40.7691
40.5533
40.673
0.0693914
0.187501
-0.206328
0.0638497
-0.0285028
-0.0257725
-0.0191434
-0.014086
-0.00996235
-0.00657436
-0.00415289
-0.00154504
40.3038
40.3029
40.3137
40.3336
40.3615
40.397
40.4396
40.4812
40.5683
40.4374
40.7648
40.552
40.6723
0.0651804
0.183587
-0.210504
0.0600999
-0.0318779
-0.028723
-0.021644
-0.0161271
-0.0115428
-0.00769769
-0.00482393
-0.0017677
40.2988
40.298
40.3088
40.3286
40.3564
40.3919
40.4347
40.4771
40.5622
40.4374
40.7598
40.5506
40.6717
0.0600899
0.178561
-0.215403
0.0556784
-0.0358327
-0.0321791
-0.0245723
-0.0185167
-0.0133929
-0.00901244
-0.00560918
-0.0020282
40.2935
40.2927
40.3034
40.323
40.3507
40.386
40.429
40.4724
40.5555
40.4377
40.7544
40.5495
40.6713
0.0542115
0.17283
-0.220943
0.0506481
-0.0403139
-0.036094
-0.0278884
-0.0212222
-0.015487
-0.0105004
-0.00649781
-0.00232294
40.2879
40.287
40.2975
40.3169
40.3443
40.3796
40.4228
40.4672
40.5481
40.4377
40.7494
40.5487
40.6714
0.0476402
0.166457
-0.227055
0.0450804
-0.0452601
-0.0404135
-0.0315462
-0.0242057
-0.0177959
-0.0121407
-0.00747728
-0.00264775
40.282
40.281
40.2913
40.3104
40.3375
40.3726
40.416
40.4614
40.5403
40.4374
40.7455
40.5488
40.6723
0.0404793
0.159539
-0.233651
0.0390564
-0.050602
-0.0450765
-0.0354936
-0.0274245
-0.0202863
-0.0139098
-0.00853354
-0.00299798
40.276
40.2748
40.2848
40.3035
40.3303
40.3652
40.4087
40.4551
40.5324
40.4376
40.7424
40.55
40.6744
0.0328201
0.152181
-0.24064
0.0326654
-0.0562626
-0.0500153
-0.039673
-0.0308316
-0.0229218
-0.0157816
-0.00965108
-0.00336851
40.2699
40.2686
40.2782
40.2964
40.3228
40.3575
40.4011
40.4486
40.5245
40.4388
40.7401
40.5526
40.678
0.0248078
0.144498
-0.247919
0.026004
-0.0621581
-0.0551565
-0.0440222
-0.0343761
-0.0256631
-0.0177283
-0.0108132
-0.00375378
40.2638
40.2623
40.2715
40.2893
40.3152
40.3496
40.3933
40.4419
40.5171
40.441
40.7389
40.5569
40.6837
0.016543
0.136609
-0.255378
0.0191741
-0.0681993
-0.0604218
-0.0484748
-0.038004
-0.0284684
-0.0197201
-0.0120022
-0.00414797
40.2579
40.2561
40.2649
40.2821
40.3075
40.3416
40.3855
40.4353
40.5102
40.4443
40.7393
40.5633
40.6917
0.0081664
0.128642
-0.262904
0.0122807
-0.0742935
-0.0657296
-0.0529616
-0.041659
-0.0312944
-0.0217263
-0.0131997
-0.00454499
40.2521
40.2501
40.2584
40.2751
40.3
40.3338
40.3778
40.4287
40.504
40.4489
40.7415
40.5722
40.7023
-0.000218387
0.120696
-0.27038
0.00543095
-0.0803452
-0.0709953
-0.0574114
-0.0452834
-0.0340963
-0.0237153
-0.0143868
-0.0049386
40.2467
40.2444
40.2523
40.2684
40.2927
40.3262
40.3703
40.4225
40.4988
40.4547
40.7456
40.5835
40.7156
-0.00845621
0.112857
-0.277687
-0.00127141
-0.0862596
-0.0761332
-0.0617518
-0.0488186
-0.0368293
-0.0256552
-0.0155447
-0.00532246
40.2417
40.2391
40.2465
40.262
40.2858
40.319
40.3633
40.4168
40.4946
40.4617
40.7516
40.5971
40.7316
-0.0164481
0.105352
-0.2847
-0.00773568
-0.0919453
-0.0810566
-0.0659104
-0.0522065
-0.0394487
-0.0275144
-0.0166543
-0.00569029
40.2372
40.2343
40.2411
40.2561
40.2794
40.3122
40.3568
40.4116
40.4914
40.4695
40.7592
40.6129
40.7501
-0.0239565
0.0983153
-0.291329
-0.0138029
-0.0973159
-0.0856825
-0.0698156
-0.0553901
-0.0419113
-0.0292623
-0.0176974
-0.00603594
40.2333
40.23
40.2364
40.2508
40.2735
40.3061
40.351
40.4071
40.4891
40.478
40.7682
40.6302
40.7706
-0.0309414
0.0917092
-0.297378
-0.0193878
-0.102239
-0.090112
-0.0734008
-0.058315
-0.0441759
-0.0308695
-0.0186562
-0.00635355
40.2301
40.2265
40.2323
40.2461
40.2684
40.3008
40.3459
40.4033
40.4876
40.4867
40.778
40.6483
40.792
-0.0372501
0.0859975
-0.302739
-0.0243559
-0.106612
-0.0939087
-0.0768273
-0.0609352
-0.0462049
-0.0323085
-0.0195141
-0.00663758
40.2277
40.2236
40.2288
40.2421
40.264
40.2962
40.3416
40.4002
40.4869
40.4952
40.788
40.6663
40.8133
-0.0427956
0.0805867
-0.307413
-0.0287538
-0.110401
-0.0971816
-0.0795691
-0.0633509
-0.0479682
-0.0335546
-0.0202561
-0.00688294
40.2263
40.2215
40.2261
40.2389
40.2604
40.2925
40.3381
40.3979
40.4866
40.5028
40.7975
40.6827
40.833
-0.0474656
0.0765655
-0.311122
-0.0322198
-0.113473
-0.0998669
-0.0818253
-0.0651735
-0.0494525
-0.0345854
-0.0208682
-0.00708511
40.2261
40.2203
40.2242
40.2366
40.2578
40.2897
40.3356
40.3962
40.4866
40.5092
40.8056
40.6966
40.8499
-0.0512531
0.0727077
-0.314083
-0.0351741
-0.115905
-0.101947
-0.083566
-0.0665792
-0.0505522
-0.0353779
-0.0213382
-0.0072402
40.2263
40.2196
40.2229
40.235
40.256
40.2879
40.3339
40.3952
40.4868
40.5138
40.8115
40.707
40.863
-0.0540618
0.0706442
-0.315962
-0.0369342
-0.117485
-0.103332
-0.0847417
-0.0675341
-0.0512878
-0.0359074
-0.0216563
-0.00734534
40.2315
40.22
40.2224
40.2343
40.2552
40.2871
40.3332
40.3948
40.487
40.5166
40.8153
40.7123
40.8716
-0.0558495
0.0683751
-0.316803
-0.0381482
-0.118356
-0.10406
-0.0853475
-0.068023
-0.0516656
-0.0361831
-0.0218178
-0.00739671
40.3198
40.3161
40.3256
40.3451
40.373
40.4081
40.45
40.4893
40.5818
40.4366
40.7756
40.5552
40.6727
0.0750648
0.194658
-0.198068
0.0700472
-0.0219045
-0.0199501
-0.0140984
-0.00986892
-0.0066187
-0.00414156
-0.00266432
-0.00103609
40.3137
40.3143
40.3246
40.3443
40.3722
40.4074
40.4493
40.4887
40.5808
40.4373
40.7713
40.5539
40.6725
0.0749191
0.195287
-0.199159
0.0695561
-0.0225734
-0.0205737
-0.0146242
-0.0102993
-0.0069528
-0.00437918
-0.00280742
-0.00108518
40.3102
40.3119
40.3226
40.3424
40.3704
40.4056
40.4476
40.4874
40.5786
40.4376
40.7688
40.5527
40.6726
0.0737305
0.192748
-0.201117
0.0677806
-0.0240615
-0.0218318
-0.0156829
-0.0111625
-0.00762127
-0.00485435
-0.00309173
-0.00117987
40.3061
40.3086
40.3198
40.3397
40.3677
40.4029
40.4451
40.4854
40.5753
40.4375
40.7654
40.5516
40.6724
0.0716927
0.191242
-0.203657
0.0656209
-0.026163
-0.0236884
-0.0172562
-0.0124463
-0.00861521
-0.00556072
-0.00351386
-0.00132012
40.3017
40.3048
40.3162
40.3361
40.3641
40.3994
40.4417
40.4826
40.5709
40.4372
40.7613
40.5503
40.6719
0.0687296
0.187205
-0.207227
0.0625012
-0.0289618
-0.0261316
-0.019325
-0.014134
-0.0099216
-0.00648898
-0.0040683
-0.00150413
40.2971
40.3004
40.3119
40.3318
40.3597
40.395
40.4374
40.4791
40.5654
40.4369
40.7565
40.5489
40.6711
0.0644628
0.183196
-0.211478
0.0586842
-0.0323913
-0.0291272
-0.0218619
-0.0162034
-0.0115231
-0.00762674
-0.00474771
-0.00172951
40.292
40.2954
40.3069
40.3267
40.3545
40.3897
40.4324
40.4748
40.5591
40.4369
40.7508
40.5473
40.6703
0.0592976
0.178079
-0.216464
0.054185
-0.0364105
-0.0326368
-0.0248334
-0.0186266
-0.0133981
-0.00895862
-0.00554292
-0.00199323
40.2867
40.29
40.3015
40.3211
40.3486
40.3838
40.4266
40.4699
40.5521
40.4367
40.745
40.5458
40.6697
0.0533328
0.172239
-0.222104
0.0490658
-0.0409657
-0.0366132
-0.0281991
-0.0213707
-0.0155209
-0.0104663
-0.006443
-0.00229165
40.281
40.2843
40.2955
40.3149
40.3422
40.3772
40.4201
40.4643
40.5443
40.4358
40.7401
40.5446
40.6695
0.0466652
0.165743
-0.228326
0.043399
-0.0459948
-0.0410015
-0.0319124
-0.0243974
-0.0178619
-0.0121286
-0.00743531
-0.00262059
40.2752
40.2783
40.2893
40.3083
40.3352
40.3701
40.413
40.4581
40.536
40.435
40.7356
40.5442
40.6701
0.0393944
0.158691
-0.235044
0.0372665
-0.0514277
-0.04574
-0.0359207
-0.0276637
-0.0203875
-0.0139219
-0.00850565
-0.00297536
40.2691
40.2721
40.2827
40.3013
40.3279
40.3624
40.4055
40.4515
40.5276
40.4348
40.7315
40.5447
40.6717
0.0316304
0.151189
-0.242165
0.0307589
-0.0571862
-0.0507601
-0.0401657
-0.0311219
-0.023061
-0.0158198
-0.00963835
-0.00335078
40.263
40.2658
40.276
40.2942
40.3203
40.3545
40.3976
40.4445
40.5192
40.4354
40.7282
40.5466
40.6748
0.0234894
0.143353
-0.249582
0.0239744
-0.0631852
-0.0559874
-0.0445844
-0.0347205
-0.0258425
-0.0177941
-0.0108165
-0.00374125
40.2569
40.2594
40.2693
40.2869
40.3125
40.3464
40.3895
40.4373
40.5111
40.4368
40.726
40.5501
40.6798
0.015098
0.135307
-0.257185
0.0170169
-0.0693343
-0.0613425
-0.0491095
-0.0384049
-0.0286898
-0.0198147
-0.0120222
-0.00414087
40.2509
40.2532
40.2626
40.2797
40.3047
40.3382
40.3813
40.4301
40.5035
40.4393
40.7253
40.5556
40.6871
0.00658205
0.127169
-0.264859
0.00999352
-0.0755387
-0.0667423
-0.0536708
-0.0421178
-0.0315586
-0.0218503
-0.0132369
-0.00454346
40.2451
40.2472
40.2561
40.2726
40.297
40.3301
40.3732
40.423
40.4966
40.443
40.7263
40.5634
40.6969
-0.00192579
0.11906
-0.272483
0.00301316
-0.0817012
-0.0721012
-0.058196
-0.0458008
-0.0344039
-0.023869
-0.0144413
-0.00494268
40.2397
40.2414
40.2499
40.2657
40.2896
40.3223
40.3654
40.4162
40.4906
40.4478
40.7292
40.5736
40.7094
-0.0103238
0.111082
-0.279937
-0.00381955
-0.0877245
-0.077332
-0.0626121
-0.0493945
-0.0371799
-0.0258383
-0.0156164
-0.00533211
40.2346
40.2361
40.244
40.2593
40.2825
40.3148
40.3579
40.4098
40.4856
40.4537
40.7339
40.5862
40.7247
-0.0183898
0.103411
-0.287096
-0.0104194
-0.0935168
-0.0823466
-0.0668465
-0.0528401
-0.0398415
-0.0277263
-0.0167428
-0.00570536
40.2301
40.2312
40.2386
40.2533
40.2759
40.3078
40.3511
40.4041
40.4816
40.4605
40.7403
40.6009
40.7425
-0.0260405
0.0962243
-0.293874
-0.016605
-0.0990065
-0.0870539
-0.0708293
-0.0560805
-0.042345
-0.0295017
-0.0178018
-0.00605618
40.2262
40.227
40.2338
40.2479
40.2699
40.3015
40.3449
40.3991
40.4786
40.468
40.7482
40.6173
40.7622
-0.0331379
0.0894907
-0.300033
-0.0222953
-0.104016
-0.0915756
-0.0745
-0.0590616
-0.044648
-0.0311344
-0.0187754
-0.0063786
40.223
40.2234
40.2297
40.2431
40.2647
40.296
40.3395
40.3948
40.4765
40.4758
40.757
40.6346
40.7831
-0.0395582
0.0836494
-0.305509
-0.0273645
-0.10847
-0.095427
-0.0779197
-0.0617363
-0.0467109
-0.0325964
-0.0196469
-0.006667
40.2206
40.2205
40.2262
40.2391
40.2602
40.2912
40.3349
40.3913
40.4752
40.4834
40.7661
40.6516
40.804
-0.0451829
0.0781435
-0.310276
-0.0318417
-0.112334
-0.0987591
-0.0807243
-0.0641489
-0.0485001
-0.0338623
-0.0204007
-0.0069162
40.2192
40.2184
40.2235
40.2358
40.2565
40.2874
40.3312
40.3886
40.4744
40.4904
40.7749
40.6673
40.8234
-0.0499338
0.0740266
-0.314078
-0.0353862
-0.115471
-0.101497
-0.0830296
-0.0660141
-0.0500118
-0.0349097
-0.0210226
-0.00712162
40.219
40.2171
40.2215
40.2334
40.2538
40.2845
40.3285
40.3867
40.4741
40.4962
40.7825
40.6804
40.8402
-0.05378
0.0701164
-0.317098
-0.0383883
-0.117943
-0.103617
-0.0848039
-0.0674503
-0.0511234
-0.0357189
-0.0215007
-0.00727921
40.2192
40.2165
40.2202
40.2318
40.252
40.2826
40.3267
40.3855
40.4739
40.5003
40.7882
40.6904
40.8531
-0.0566252
0.0679962
-0.319026
-0.0401929
-0.11956
-0.105033
-0.086004
-0.0684238
-0.0518727
-0.0362565
-0.0218238
-0.00738594
40.2243
40.2169
40.2197
40.2311
40.2512
40.2817
40.3259
40.385
40.474
40.5025
40.7928
40.6963
40.8613
-0.058429
0.0657432
-0.319874
-0.041415
-0.120442
-0.105768
-0.0866202
-0.0689212
-0.0522567
-0.0365313
-0.0219871
-0.00743809
40.3146
40.3121
40.322
40.3416
40.3694
40.4045
40.4462
40.4856
40.5772
40.4336
40.771
40.5513
40.6699
0.0737932
0.192347
-0.199237
0.0677308
-0.0223677
-0.020223
-0.0140944
-0.00966579
-0.00630421
-0.00380304
-0.00238956
-0.000915264
40.3086
40.3103
40.321
40.3407
40.3686
40.4037
40.4455
40.485
40.5761
40.4346
40.7658
40.5499
40.6699
0.0735716
0.192969
-0.200339
0.0672075
-0.0230592
-0.0208665
-0.0146353
-0.0101077
-0.0066468
-0.00404644
-0.00253593
-0.000965275
40.305
40.3079
40.3191
40.3389
40.3667
40.4018
40.4437
40.4836
40.5738
40.435
40.7627
40.5485
40.6701
0.0723439
0.190373
-0.202361
0.0653879
-0.0245872
-0.0221599
-0.0157232
-0.0109937
-0.00733226
-0.00453324
-0.00282694
-0.00106213
40.3009
40.3046
40.3162
40.3361
40.3639
40.3991
40.4411
40.4814
40.5702
40.4348
40.7587
40.5472
40.6698
0.0702454
0.188762
-0.204994
0.0631362
-0.026757
-0.0240706
-0.0173404
-0.0123118
-0.00835165
-0.00525704
-0.00325915
-0.00120563
40.2965
40.3007
40.3125
40.3325
40.3602
40.3954
40.4375
40.4784
40.5654
40.4344
40.7539
40.5455
40.669
0.0671671
0.184621
-0.208669
0.0599174
-0.029643
-0.026587
-0.0194678
-0.0140451
-0.00969182
-0.00620845
-0.00382702
-0.00139397
40.2918
40.2963
40.3082
40.328
40.3557
40.3908
40.433
40.4745
40.5596
40.4339
40.7481
40.5436
40.6679
0.0627486
0.180423
-0.213071
0.0559674
-0.0331811
-0.0296725
-0.0220772
-0.0161708
-0.0113352
-0.00737495
-0.00452312
-0.00162472
40.2867
40.2913
40.3032
40.3229
40.3504
40.3853
40.4276
40.4698
40.5528
40.4335
40.7412
40.5414
40.6665
0.0574023
0.175121
-0.218231
0.0513122
-0.0373294
-0.033289
-0.0251347
-0.0186611
-0.01326
-0.00874097
-0.00533816
-0.00189483
40.2813
40.2859
40.2976
40.3171
40.3443
40.3791
40.4214
40.4643
40.5449
40.4323
40.7347
40.5392
40.6652
0.051235
0.169059
-0.224071
0.0460146
-0.0420331
-0.0373882
-0.0285993
-0.0214822
-0.01544
-0.0102879
-0.00626105
-0.0022006
40.2756
40.2801
40.2916
40.3108
40.3377
40.3722
40.4145
40.4581
40.5363
40.4302
40.7287
40.5371
40.664
0.0443385
0.162316
-0.230517
0.0401484
-0.0472287
-0.0419143
-0.0324236
-0.0245953
-0.0178451
-0.0119943
-0.00727895
-0.0025378
40.2697
40.274
40.2852
40.304
40.3305
40.3647
40.4069
40.4512
40.5272
40.4285
40.7224
40.5354
40.6633
0.0368149
0.154992
-0.237481
0.0337977
-0.0528443
-0.0468041
-0.0365538
-0.0279565
-0.0204412
-0.0138359
-0.0083774
-0.00290165
40.2636
40.2677
40.2786
40.2969
40.3229
40.3567
40.3988
40.4437
40.5176
40.4271
40.7162
40.5345
40.6634
0.028779
0.1472
-0.244865
0.0270555
-0.0587996
-0.0519874
-0.0409304
-0.0315171
-0.0231907
-0.015786
-0.00954041
-0.00328686
40.2574
40.2613
40.2718
40.2896
40.315
40.3483
40.3902
40.4358
40.508
40.4263
40.7106
40.5346
40.6647
0.020349
0.139058
-0.252561
0.0200233
-0.0650072
-0.0573876
-0.0454886
-0.0352243
-0.0260528
-0.0178155
-0.0107507
-0.00368772
40.2513
40.2549
40.2649
40.2821
40.3069
40.3398
40.3814
40.4276
40.4985
40.4262
40.7058
40.5361
40.6675
0.011655
0.130693
-0.260455
0.0128088
-0.0713734
-0.0629231
-0.0501593
-0.0390219
-0.028984
-0.0198937
-0.0119899
-0.00409818
40.2452
40.2486
40.2581
40.2747
40.2988
40.3311
40.3725
40.4192
40.4894
40.4269
40.7023
40.5394
40.6724
0.00283449
0.122234
-0.268427
0.00552349
-0.0778003
-0.0685083
-0.0548701
-0.0428512
-0.031939
-0.0219884
-0.013239
-0.0045119
40.2394
40.2425
40.2515
40.2674
40.2908
40.3225
40.3636
40.411
40.4809
40.4286
40.7003
40.5449
40.6795
-0.00599131
0.113804
-0.276352
-0.00171833
-0.0841866
-0.0740549
-0.0595469
-0.0466518
-0.0348713
-0.0240667
-0.0144782
-0.00492235
40.2339
40.2366
40.2451
40.2603
40.2831
40.3142
40.355
40.403
40.4733
40.4313
40.7001
40.5526
40.6894
-0.0147521
0.105459
-0.284109
-0.00880569
-0.0904289
-0.0794738
-0.0641145
-0.0503627
-0.0377337
-0.0260952
-0.0156877
-0.00532294
40.2288
40.2312
40.2391
40.2537
40.2757
40.3062
40.3468
40.3955
40.4666
40.435
40.7018
40.5626
40.7019
-0.0230301
0.097498
-0.29158
-0.0156981
-0.0964188
-0.0846792
-0.0684995
-0.0539235
-0.04048
-0.0280409
-0.0168477
-0.00570707
40.2242
40.2263
40.2337
40.2475
40.2688
40.2988
40.3392
40.3886
40.461
40.4397
40.7054
40.5749
40.717
-0.0309775
0.0900135
-0.298609
-0.022117
-0.102189
-0.0896122
-0.0726359
-0.0572768
-0.0430653
-0.0298715
-0.0179388
-0.00606831
40.2202
40.222
40.2287
40.2419
40.2625
40.292
40.3323
40.3825
40.4565
40.4452
40.7105
40.589
40.7341
-0.0383466
0.0830143
-0.305018
-0.0280204
-0.107349
-0.0941847
-0.0764779
-0.0603693
-0.0454463
-0.0315556
-0.0189425
-0.00640045
40.2169
40.2183
40.2245
40.237
40.257
40.286
40.3263
40.3772
40.4531
40.4511
40.7169
40.6041
40.7526
-0.0450034
0.0769084
-0.310734
-0.0332908
-0.11197
-0.0982012
-0.0799007
-0.0631688
-0.0475797
-0.033064
-0.0198412
-0.00669767
40.2145
40.2154
40.2209
40.2329
40.2523
40.2809
40.3211
40.3729
40.4505
40.457
40.7238
40.6191
40.7713
-0.050852
0.071203
-0.315689
-0.0379332
-0.115982
-0.101668
-0.0828298
-0.0655662
-0.0494433
-0.0343695
-0.0206188
-0.00695463
40.2131
40.2133
40.2181
40.2295
40.2485
40.2768
40.317
40.3695
40.4487
40.4626
40.7306
40.6334
40.7888
-0.0557811
0.066883
-0.31968
-0.0416352
-0.119249
-0.104514
-0.0852308
-0.0675195
-0.0509649
-0.0354476
-0.0212608
-0.00716656
40.2128
40.2119
40.2161
40.227
40.2456
40.2737
40.3139
40.367
40.4475
40.4673
40.7366
40.6454
40.804
-0.0597707
0.0628389
-0.322824
-0.0447367
-0.121814
-0.106715
-0.0870749
-0.0690155
-0.0521208
-0.0363014
-0.0217549
-0.00732908
40.213
40.2113
40.2148
40.2254
40.2437
40.2716
40.3118
40.3654
40.4467
40.4706
40.7411
40.6544
40.8158
-0.0627185
0.0606068
-0.324858
-0.0466299
-0.1235
-0.108189
-0.0883225
-0.0700274
-0.0528996
-0.0368438
-0.0220872
-0.00743913
40.2181
40.2117
40.2143
40.2246
40.2428
40.2707
40.3109
40.3648
40.4465
40.4725
40.745
40.6583
40.8231
-0.0645132
0.0582921
-0.32571
-0.0478761
-0.124411
-0.10895
-0.0889614
-0.0705434
-0.053297
-0.0371237
-0.0222561
-0.00749301
40.3083
40.3066
40.3168
40.3364
40.3641
40.3989
40.4405
40.48
40.5702
40.429
40.7638
40.546
40.6654
0.0708492
0.189253
-0.200662
0.0643378
-0.0229516
-0.0205047
-0.0139776
-0.00926693
-0.00575591
-0.00323756
-0.0019391
-0.00071928
40.3022
40.3048
40.3158
40.3355
40.3632
40.3981
40.4397
40.4794
40.5691
40.43
40.758
40.5444
40.6654
0.0706095
0.189831
-0.201794
0.0637689
-0.0236767
-0.0211772
-0.0145408
-0.00972589
-0.00611108
-0.00348949
-0.00209027
-0.00077067
40.2986
40.3023
40.3138
40.3336
40.3612
40.3961
40.4379
40.4778
40.5665
40.4303
40.7543
40.5428
40.6654
0.0692952
0.187136
-0.203911
0.0618738
-0.0252695
-0.0225248
-0.0156727
-0.0106463
-0.00682194
-0.00399364
-0.00239127
-0.000870735
40.2945
40.2991
40.3109
40.3307
40.3583
40.3932
40.435
40.4753
40.5625
40.4301
40.7495
40.5411
40.6649
0.0670751
0.18536
-0.206684
0.0594963
-0.0275378
-0.0245168
-0.0173559
-0.0120157
-0.00787942
-0.00474351
-0.00283855
-0.00101909
40.2901
40.2951
40.3072
40.327
40.3545
40.3893
40.4311
40.4719
40.5573
40.4294
40.7436
40.5389
40.6636
0.0638095
0.181053
-0.210527
0.056119
-0.0305563
-0.0271431
-0.0195712
-0.0138172
-0.0092702
-0.00572958
-0.00342651
-0.00121389
40.2853
40.2906
40.3027
40.3224
40.3498
40.3844
40.4262
40.4675
40.5508
40.4286
40.7364
40.5362
40.6618
0.0591479
0.176576
-0.215153
0.0519701
-0.0342584
-0.030364
-0.0222895
-0.0160277
-0.0109764
-0.00693916
-0.0041476
-0.00145268
40.2802
40.2855
40.2976
40.3171
40.3442
40.3786
40.4204
40.4622
40.5431
40.4271
40.7286
40.5331
40.6595
0.0535256
0.170987
-0.220575
0.0470787
-0.0386016
-0.0341416
-0.0254765
-0.0186186
-0.0129758
-0.00835636
-0.00499235
-0.00173235
40.2747
40.28
40.2919
40.3112
40.3379
40.372
40.4136
40.456
40.5342
40.4243
40.7209
40.5297
40.6568
0.047032
0.164587
-0.226718
0.0415101
-0.0435295
-0.0384261
-0.0290902
-0.0215556
-0.0152417
-0.00996225
-0.00594944
-0.00204914
40.269
40.2741
40.2858
40.3046
40.3309
40.3647
40.406
40.4488
40.5244
40.421
40.7126
40.526
40.654
0.0397699
0.157466
-0.233504
0.0353409
-0.0489769
-0.0431601
-0.0330818
-0.0247987
-0.0177433
-0.0117348
-0.00700576
-0.00239873
40.263
40.2679
40.2793
40.2976
40.3234
40.3567
40.3977
40.4408
40.5138
40.4178
40.7037
40.5223
40.6511
0.0318428
0.149728
-0.240841
0.0286584
-0.0548691
-0.0482785
-0.037396
-0.0283029
-0.0204455
-0.0136492
-0.00814644
-0.0027762
40.2568
40.2615
40.2725
40.2903
40.3154
40.3481
40.3887
40.432
40.5026
40.4146
40.6944
40.5188
40.6484
0.0233763
0.14149
-0.248626
0.0215596
-0.0611231
-0.0537086
-0.0419713
-0.032018
-0.0233095
-0.0156777
-0.00935504
-0.00317613
40.2505
40.255
40.2655
40.2827
40.3071
40.3391
40.3792
40.4227
40.4911
40.4116
40.6851
40.5158
40.6463
0.0144871
0.132879
-0.256749
0.0141507
-0.0676473
-0.0593709
-0.0467403
-0.0358891
-0.0262931
-0.0177905
-0.0106137
-0.00359261
40.2443
40.2485
40.2584
40.275
40.2986
40.3298
40.3693
40.4129
40.4794
40.4089
40.6761
40.5137
40.645
0.00531466
0.124028
-0.265087
0.00654482
-0.0743438
-0.0651798
-0.0516312
-0.0398579
-0.0293511
-0.0199556
-0.0119034
-0.00401939
40.2381
40.2421
40.2515
40.2673
40.2901
40.3205
40.3593
40.4029
40.4679
40.4067
40.6681
40.5128
40.6452
-0.00399346
0.115083
-0.273512
-0.00114005
-0.0811099
-0.0710462
-0.0565686
-0.0438631
-0.0324363
-0.0221395
-0.0132044
-0.00444987
40.2322
40.2358
40.2447
40.2597
40.2816
40.3111
40.3492
40.3928
40.4569
40.4052
40.6613
40.5137
40.6472
-0.0132868
0.10622
-0.281894
-0.00878137
-0.0878402
-0.0768777
-0.0614746
-0.0478415
-0.0355
-0.0243079
-0.014496
-0.00487729
40.2266
40.2299
40.2381
40.2524
40.2734
40.302
40.3395
40.3831
40.4467
40.4045
40.6561
40.5166
40.6515
-0.0225699
0.0971912
-0.290111
-0.0162488
-0.0944311
-0.0825807
-0.0662704
-0.0517291
-0.038493
-0.0264258
-0.0157576
-0.00529474
40.2214
40.2244
40.232
40.2454
40.2656
40.2933
40.3301
40.3738
40.4375
40.4047
40.6529
40.522
40.6585
-0.0313503
0.0888245
-0.298071
-0.023607
-0.100804
-0.08806
-0.0708788
-0.0554629
-0.0413667
-0.0284586
-0.0169685
-0.00569533
40.2168
40.2193
40.2263
40.239
40.2582
40.2852
40.3214
40.3651
40.4294
40.406
40.6516
40.5296
40.668
-0.0397335
0.0808967
-0.305476
-0.030353
-0.106796
-0.0933027
-0.0752382
-0.0589853
-0.0440755
-0.0303724
-0.0181082
-0.00607233
40.2127
40.2149
40.2213
40.2331
40.2516
40.2778
40.3134
40.3574
40.4225
40.408
40.6521
40.5393
40.6798
-0.0475203
0.0734911
-0.312275
-0.0365916
-0.112273
-0.0980517
-0.0792863
-0.0622581
-0.0465782
-0.0321346
-0.0191575
-0.0064192
40.2094
40.2112
40.2169
40.228
40.2457
40.2712
40.3064
40.3506
40.4168
40.4108
40.6541
40.5502
40.6933
-0.0545646
0.066982
-0.318352
-0.0421702
-0.117164
-0.102289
-0.0828515
-0.0651675
-0.0488271
-0.033714
-0.0200976
-0.00672981
40.2069
40.2082
40.2132
40.2236
40.2406
40.2655
40.3004
40.345
40.4123
40.4139
40.6571
40.5611
40.7075
-0.0607597
0.0609677
-0.323609
-0.047073
-0.121404
-0.105952
-0.0859291
-0.0676675
-0.0507632
-0.0350784
-0.0209113
-0.00699852
40.2054
40.206
40.2103
40.2201
40.2365
40.2609
40.2956
40.3405
40.4088
40.4171
40.6604
40.5711
40.7211
-0.0659784
0.0563452
-0.327871
-0.0510114
-0.124869
-0.10896
-0.088461
-0.0697211
-0.0523467
-0.0362461
-0.021585
-0.00722026
40.2051
40.2046
40.2082
40.2175
40.2334
40.2575
40.2919
40.3371
40.4062
40.4199
40.6635
40.5797
40.733
-0.0702044
0.0521068
-0.331209
-0.054269
-0.127577
-0.111283
-0.0904077
-0.0712966
-0.0535589
-0.037094
-0.0221009
-0.00739022
40.2053
40.2039
40.2069
40.2158
40.2314
40.2552
40.2895
40.335
40.4046
40.4222
40.6656
40.5866
40.7422
-0.073312
0.0497085
-0.333422
-0.0562939
-0.129369
-0.112845
-0.0917246
-0.0723632
-0.054379
-0.0376687
-0.0224471
-0.00750535
40.2104
40.2043
40.2063
40.215
40.2305
40.2541
40.2884
40.334
40.4039
40.4237
40.6672
40.5908
40.7478
-0.0752016
0.0473415
-0.334243
-0.0575792
-0.130326
-0.113644
-0.092398
-0.072907
-0.0547966
-0.0379625
-0.0226258
-0.00756176
40.301
40.2997
40.3101
40.3295
40.3569
40.3915
40.4329
40.4725
40.561
40.4227
40.7543
40.5389
40.6589
0.0667364
0.185037
-0.20236
0.0598315
-0.0236776
-0.0207712
-0.0137252
-0.00865352
-0.00495911
-0.00243463
-0.00130688
-0.000446244
40.2949
40.2979
40.309
40.3286
40.356
40.3906
40.432
40.4718
40.5596
40.4237
40.7481
40.5371
40.6589
0.0664848
0.185561
-0.203534
0.0592033
-0.0244481
-0.021481
-0.0143179
-0.00913518
-0.00533097
-0.00269784
-0.00146443
-0.000499508
40.2913
40.2954
40.307
40.3266
40.354
40.3885
40.43
40.47
40.5567
40.4239
40.7437
40.5352
40.6587
0.0650441
0.182732
-0.205777
0.0572073
-0.0261257
-0.0229017
-0.0155087
-0.0101012
-0.0060756
-0.00322501
-0.00177866
-0.000603818
40.2871
40.292
40.304
40.3236
40.3509
40.3854
40.4268
40.4671
40.5523
40.4234
40.7379
40.5329
40.6577
0.0626496
0.180732
-0.208736
0.0546574
-0.0285295
-0.0250041
-0.0172803
-0.0115391
-0.00718375
-0.00400953
-0.00224598
-0.000758593
40.2826
40.288
40.3002
40.3198
40.3469
40.3812
40.4225
40.4632
40.5464
40.4225
40.7307
40.53
40.6557
0.0591313
0.176195
-0.212813
0.0510638
-0.0317264
-0.0277772
-0.019613
-0.0134317
-0.00864191
-0.00504173
-0.00286064
-0.000961971
40.2778
40.2834
40.2956
40.315
40.3419
40.376
40.4172
40.4582
40.5391
40.4208
40.7221
40.5263
40.6528
0.0541314
0.171345
-0.217738
0.046647
-0.035649
-0.0311798
-0.0224771
-0.0157552
-0.0104319
-0.00630866
-0.00361495
-0.00121144
40.2726
40.2783
40.2904
40.3095
40.3361
40.3698
40.4107
40.452
40.5303
40.4175
40.7131
40.5219
40.6491
0.048109
0.165361
-0.223517
0.0414366
-0.0402549
-0.0351735
-0.0258375
-0.0184807
-0.0125309
-0.00779412
-0.00449926
-0.00150383
40.2671
40.2726
40.2845
40.3034
40.3294
40.3627
40.4032
40.4447
40.5201
40.4132
40.7033
40.5167
40.6446
0.0411611
0.158503
-0.230069
0.0355017
-0.0454854
-0.0397069
-0.0296509
-0.0215727
-0.0149117
-0.00947866
-0.00550197
-0.0018353
40.2612
40.2666
40.2782
40.2966
40.3221
40.3547
40.3948
40.4363
40.5086
40.4083
40.692
40.5108
40.6393
0.0333889
0.150867
-0.237314
0.0289223
-0.0512728
-0.0447207
-0.0338671
-0.0249901
-0.0175423
-0.0113396
-0.00660956
-0.00220139
40.2551
40.2603
40.2715
40.2893
40.3141
40.346
40.3854
40.4269
40.4961
40.403
40.6793
40.5041
40.6331
0.0249054
0.142565
-0.245156
0.0217898
-0.0575392
-0.0501472
-0.0384287
-0.0286863
-0.0203867
-0.0133513
-0.00780671
-0.00259706
40.2488
40.2538
40.2645
40.2816
40.3056
40.3367
40.3753
40.4164
40.4826
40.3972
40.6657
40.4967
40.6261
0.015829
0.13372
-0.253488
0.0142068
-0.0641972
-0.0559103
-0.0432714
-0.0326089
-0.0234043
-0.0154851
-0.00907636
-0.00301667
40.2424
40.2471
40.2573
40.2737
40.2968
40.3269
40.3645
40.4052
40.4683
40.3911
40.6513
40.4889
40.6184
0.00630008
0.124466
-0.262189
0.00628563
-0.0711506
-0.0619263
-0.0483248
-0.0367007
-0.0265512
-0.0177096
-0.0103999
-0.00345408
40.2361
40.2405
40.2501
40.2656
40.2878
40.3168
40.3533
40.3933
40.4537
40.3847
40.6365
40.4809
40.6105
-0.00353951
0.114943
-0.271132
-0.00185361
-0.0782952
-0.0681053
-0.053513
-0.0409001
-0.0297797
-0.0199915
-0.0117574
-0.00390273
40.2298
40.2339
40.2429
40.2576
40.2786
40.3065
40.3418
40.381
40.4389
40.3782
40.6219
40.4734
40.6028
-0.0135337
0.105297
-0.28018
-0.0100862
-0.0855223
-0.0743526
-0.0587564
-0.0451426
-0.0330403
-0.0222954
-0.0131281
-0.00435574
40.2238
40.2275
40.2358
40.2496
40.2696
40.2962
40.3302
40.3686
40.4245
40.372
40.6079
40.467
40.5961
-0.0235239
0.0956624
-0.289195
-0.0182875
-0.0927196
-0.080571
-0.0639726
-0.0493612
-0.0362812
-0.0245851
-0.0144903
-0.00480596
40.2181
40.2214
40.2291
40.2419
40.2607
40.2861
40.3189
40.3564
40.4107
40.3663
40.5952
40.4623
40.591
-0.0334688
0.0861457
-0.298034
-0.0263543
-0.0997707
-0.0866644
-0.0690778
-0.0534875
-0.03945
-0.0268236
-0.0158221
-0.00524612
40.2128
40.2158
40.2227
40.2346
40.2523
40.2764
40.308
40.3447
40.3979
40.3613
40.5843
40.4599
40.5883
-0.0429485
0.0770463
-0.306619
-0.0341419
-0.106638
-0.0925562
-0.0739862
-0.057453
-0.0424942
-0.0289737
-0.0171016
-0.00566893
40.208
40.2106
40.2169
40.2278
40.2444
40.2674
40.2978
40.3337
40.3863
40.3574
40.5755
40.4595
40.5882
-0.0519588
0.0684771
-0.314584
-0.0414196
-0.11302
-0.098096
-0.0786747
-0.0611948
-0.0453664
-0.0309993
-0.0183071
-0.00606722
40.2039
40.2061
40.2116
40.2217
40.2372
40.2591
40.2884
40.3237
40.376
40.3544
40.5688
40.4605
40.5907
-0.0603409
0.0604992
-0.321919
-0.0481271
-0.118891
-0.103175
-0.0829368
-0.0647191
-0.0480513
-0.0328668
-0.019418
-0.00643399
40.2005
40.2022
40.207
40.2163
40.2308
40.2517
40.2801
40.315
40.3672
40.3524
40.564
40.4628
40.5953
-0.0679305
0.0534404
-0.328482
-0.0541324
-0.124145
-0.107713
-0.0867411
-0.0677805
-0.0504362
-0.0345486
-0.0204144
-0.00676268
40.198
40.1991
40.2032
40.2117
40.2254
40.2453
40.2729
40.3075
40.3599
40.3512
40.5607
40.4661
40.6012
-0.0746072
0.0469953
-0.334159
-0.0593955
-0.128699
-0.111639
-0.0900294
-0.0704331
-0.0524732
-0.0360367
-0.0212772
-0.00704715
40.1964
40.1968
40.2002
40.2079
40.2209
40.2401
40.2671
40.3015
40.354
40.3507
40.5584
40.4697
40.6073
-0.0802339
0.0419643
-0.338784
-0.0636506
-0.132431
-0.114865
-0.0927364
-0.0726207
-0.0541522
-0.0372172
-0.0219911
-0.00728208
40.196
40.1954
40.198
40.2052
40.2176
40.2362
40.2627
40.297
40.3496
40.3507
40.5567
40.4729
40.6126
-0.0847843
0.0374598
-0.342374
-0.0671265
-0.135338
-0.117355
-0.0948185
-0.0743015
-0.0554412
-0.0381229
-0.0225406
-0.0074623
40.1962
40.1947
40.1966
40.2033
40.2153
40.2336
40.2598
40.294
40.3466
40.351
40.5549
40.4753
40.6164
-0.0881323
0.0348356
-0.344732
-0.0693243
-0.137272
-0.119034
-0.0962285
-0.0754405
-0.0563145
-0.0387362
-0.0229061
-0.00758429
40.2013
40.1951
40.196
40.2025
40.2143
40.2324
40.2585
40.2926
40.3452
40.3519
40.5541
40.4766
40.6182
-0.090188
0.0323725
-0.345787
-0.0706821
-0.138295
-0.119889
-0.0969489
-0.0760211
-0.0567593
-0.0390491
-0.0230906
-0.00764372
40.2925
40.2915
40.3019
40.3211
40.3481
40.3824
40.4235
40.4632
40.5495
40.4149
40.7425
40.5299
40.6506
0.0615042
0.17972
-0.204249
0.054169
-0.0245749
-0.0209821
-0.013306
-0.00780084
-0.00389446