/*--------------------------------*- C++ -*----------------------------------*\
| =========                 |                                                 |
| \\      /  F ield         | OpenFOAM: The Open Source CFD Toolbox           |
|  \\    /   O peration     | Version:  2306                                  |
|   \\  /    A nd           | Website:  www.openfoam.com                      |
|    \\/     M anipulation  |                                                 |
\*---------------------------------------------------------------------------*/
FoamFile
{
    version     2.0;
    format      ascii;
    arch        "LSB;label=32;scalar=64";
    class       volScalarField;
    location    "0.4";
    object      p;
}
// * * * * * * * * * * * * * * * * * * * * * * * * * * * * * * * * * * * * * //

dimensions      [0 2 -2 0 0 0 0];

internalField   nonuniform List<scalar> 
288632
(
37.4952
37.489
37.4987
37.5187
37.5466
37.5806
37.618
37.6551
37.6914
37.6362
38.4046
37.2547
37.6634
0.618247
0.878274
0.142631
0.175995
0.167149
0.152957
0.134941
0.113874
0.090469
0.065379
0.0388352
0.0127188
37.4903
37.4876
37.4979
37.5181
37.5462
37.5803
37.6179
37.6554
37.6918
37.6371
38.4011
37.2523
37.6643
0.617625
0.881139
0.142094
0.175889
0.166893
0.152691
0.134704
0.113677
0.0903149
0.0652684
0.0387677
0.0126953
37.4867
37.4854
37.4963
37.5168
37.5451
37.5796
37.6177
37.6558
37.6927
37.6403
38.3965
37.2505
37.6629
0.617952
0.878469
0.140931
0.175022
0.166245
0.152135
0.13423
0.113285
0.0900085
0.0650487
0.0386351
0.0126506
37.4829
37.4825
37.494
37.5148
37.5435
37.5785
37.6173
37.6562
37.694
37.6451
38.3889
37.2485
37.6606
0.618817
0.878787
0.140011
0.174049
0.165319
0.151314
0.133525
0.112703
0.0895537
0.0647228
0.0384391
0.012585
37.479
37.4791
37.491
37.5122
37.5413
37.5769
37.6166
37.6568
37.6958
37.6514
38.3788
37.2458
37.6575
0.617624
0.877189
0.138587
0.172713
0.164097
0.150234
0.132599
0.111939
0.0889562
0.0642948
0.038182
0.0124993
37.4748
37.4753
37.4875
37.509
37.5387
37.575
37.6158
37.6575
37.6981
37.6594
38.3663
37.2427
37.6536
0.615842
0.875275
0.136882
0.171061
0.162597
0.148908
0.131462
0.111002
0.0882239
0.0637705
0.0378674
0.0123945
37.4704
37.471
37.4835
37.5054
37.5355
37.5727
37.6149
37.6583
37.701
37.669
38.3513
37.2394
37.6493
0.613618
0.872918
0.134894
0.169118
0.160837
0.147353
0.13013
0.109904
0.0873662
0.063157
0.0374996
0.012272
37.4656
37.4664
37.4791
37.5013
37.5319
37.5701
37.6137
37.6594
37.7046
37.6803
38.3342
37.2362
37.6448
0.610994
0.870173
0.132642
0.166908
0.158837
0.145589
0.12862
0.108659
0.086395
0.0624627
0.0370835
0.0121336
37.4606
37.4615
37.4743
37.4967
37.528
37.5671
37.6125
37.6606
37.7088
37.6933
38.3152
37.2336
37.6405
0.608031
0.867088
0.130146
0.16446
0.156625
0.143639
0.126952
0.107286
0.0853238
0.0616973
0.0366251
0.0119813
37.4554
37.4563
37.4692
37.4919
37.5236
37.5639
37.6111
37.6621
37.7139
37.7078
38.2949
37.2318
37.637
0.604778
0.863721
0.127435
0.161807
0.154231
0.141531
0.125149
0.105802
0.0841677
0.0608717
0.0361308
0.0118171
37.4501
37.451
37.4639
37.4868
37.519
37.5604
37.6096
37.6637
37.7197
37.7237
38.2738
37.2314
37.6347
0.60128
0.860123
0.124541
0.158987
0.151689
0.139294
0.123238
0.104231
0.0829435
0.0599979
0.0356078
0.0116434
37.4447
37.4455
37.4585
37.4815
37.5142
37.5566
37.6079
37.6654
37.7261
37.741
38.2528
37.2329
37.6343
0.597602
0.856358
0.121505
0.15604
0.149035
0.136961
0.121246
0.102594
0.0816693
0.0590887
0.0350636
0.0114626
37.4393
37.4401
37.453
37.476
37.5092
37.5528
37.6062
37.6673
37.7331
37.7592
38.2325
37.2367
37.6362
0.593794
0.85249
0.118374
0.153011
0.146309
0.134567
0.119204
0.100917
0.0803643
0.0581578
0.0345065
0.0112774
37.434
37.4347
37.4475
37.4706
37.5042
37.5488
37.6044
37.6692
37.7406
37.7783
38.214
37.2432
37.6411
0.589925
0.848576
0.115191
0.149946
0.143554
0.132149
0.117143
0.0992258
0.0790486
0.0572195
0.0339448
0.0110907
37.4289
37.4295
37.4421
37.4652
37.4991
37.5447
37.6025
37.6712
37.7485
37.7977
38.1978
37.2529
37.6494
0.586018
0.844671
0.112011
0.146893
0.140813
0.129746
0.115097
0.0975468
0.0777429
0.0562883
0.0333874
0.0109054
37.4241
37.4246
37.437
37.46
37.4942
37.5407
37.6006
37.6731
37.7564
37.8172
38.1847
37.266
37.6613
0.58218
0.840839
0.108888
0.143904
0.138132
0.127397
0.113097
0.0959074
0.0764684
0.0553795
0.0328434
0.0107246
37.4197
37.42
37.4322
37.455
37.4894
37.5369
37.5987
37.675
37.7643
37.8364
38.1751
37.2823
37.677
0.578427
0.837139
0.105877
0.141029
0.135555
0.125141
0.111178
0.0943349
0.0752462
0.0545082
0.032322
0.0105513
37.4157
37.4158
37.4277
37.4504
37.4849
37.5331
37.5969
37.6768
37.772
37.8548
38.169
37.3015
37.6958
0.574875
0.833622
0.103032
0.138317
0.133126
0.123017
0.109373
0.0928561
0.0740971
0.0536893
0.0318322
0.0103887
37.4122
37.4121
37.4237
37.4462
37.4808
37.5297
37.5952
37.6785
37.7792
37.8721
38.1662
37.323
37.7173
0.57154
0.830337
0.100411
0.135817
0.130889
0.121062
0.107712
0.0914968
0.0730414
0.0529372
0.0313826
0.0102395
37.4095
37.409
37.4203
37.4425
37.4771
37.5266
37.5937
37.68
37.7859
37.8879
38.1662
37.3458
37.7406
0.568474
0.827325
0.0980663
0.133573
0.128884
0.119311
0.106227
0.0902812
0.0720977
0.0522653
0.0309812
0.0101064
37.4075
37.4066
37.4174
37.4394
37.474
37.524
37.5923
37.6814
37.7918
37.9018
38.1681
37.3689
37.7643
0.565709
0.824619
0.096054
0.131626
0.127147
0.117797
0.104943
0.0892312
0.071283
0.0516856
0.0306349
0.00999163
37.4063
37.4049
37.4152
37.4368
37.4714
37.5218
37.5913
37.6826
37.7968
37.9136
38.1711
37.3908
37.7872
0.563314
0.822677
0.0944474
0.13001
0.125713
0.116548
0.103884
0.0883661
0.070612
0.0512083
0.03035
0.00989732
37.4062
37.4039
37.4136
37.435
37.4695
37.5201
37.5905
37.6835
37.8008
37.923
38.1744
37.4106
37.8077
0.562682
0.819077
0.0929602
0.128708
0.124607
0.115589
0.103071
0.0877016
0.0700969
0.050842
0.0301315
0.00982512
37.4073
37.4035
37.4126
37.4337
37.4682
37.5191
37.59
37.6843
37.8036
37.9296
38.1767
37.4258
37.8244
0.562215
0.820279
0.0925203
0.128081
0.123896
0.11494
0.102519
0.0872502
0.069747
0.0505934
0.0299836
0.00977648
37.4109
37.4037
37.4122
37.4332
37.4677
37.5186
37.5899
37.6848
37.8053
37.9333
38.1791
37.4332
37.8361
0.560373
0.815998
0.0922739
0.127399
0.123446
0.114596
0.102235
0.08702
0.0695689
0.0504668
0.0299091
0.00975265
37.4894
37.4865
37.4968
37.5169
37.5448
37.5788
37.6162
37.6534
37.6896
37.6345
38.3991
37.2506
37.6627
0.617764
0.877422
0.143296
0.175969
0.167174
0.153027
0.135044
0.114001
0.0906095
0.0655152
0.0389422
0.0127647
37.4845
37.4851
37.4959
37.5162
37.5443
37.5785
37.6162
37.6537
37.69
37.6358
38.3945
37.2481
37.6633
0.617234
0.880134
0.142746
0.175844
0.166905
0.152751
0.134803
0.113801
0.090453
0.0654029
0.0388736
0.0127409
37.4808
37.4828
37.4943
37.5149
37.5433
37.5777
37.6159
37.654
37.691
37.6391
38.3894
37.2462
37.662
0.617591
0.877475
0.141581
0.174977
0.166251
0.152188
0.134321
0.113404
0.0901421
0.0651801
0.0387392
0.0126956
37.4771
37.4799
37.492
37.5129
37.5416
37.5766
37.6154
37.6544
37.6923
37.6439
38.3816
37.244
37.6597
0.618483
0.877701
0.140619
0.173976
0.165307
0.151354
0.133605
0.112813
0.0896806
0.0648495
0.0385405
0.0126292
37.4731
37.4765
37.489
37.5102
37.5394
37.5749
37.6147
37.6549
37.694
37.6502
38.3712
37.2412
37.6565
0.617237
0.876086
0.139174
0.172617
0.164064
0.150255
0.132664
0.112037
0.0890743
0.0644154
0.0382799
0.0125424
37.4689
37.4727
37.4854
37.507
37.5366
37.5729
37.6137
37.6554
37.6961
37.6581
38.3582
37.2377
37.6526
0.615443
0.874125
0.13744
0.170935
0.162539
0.148907
0.131509
0.111085
0.0883309
0.0638836
0.037961
0.0124362
37.4644
37.4684
37.4814
37.5033
37.5334
37.5705
37.6126
37.6561
37.6989
37.6677
38.3427
37.2341
37.6482
0.613184
0.871713
0.135416
0.168956
0.160747
0.147326
0.130155
0.10997
0.0874603
0.0632612
0.037588
0.0123121
37.4596
37.4637
37.4769
37.4991
37.5297
37.5677
37.6113
37.657
37.7022
37.6788
38.325
37.2305
37.6436
0.610521
0.868904
0.13312
0.166706
0.158713
0.145532
0.12862
0.108706
0.0864744
0.0625567
0.0371661
0.0121718
37.4546
37.4587
37.472
37.4945
37.5255
37.5646
37.6098
37.6579
37.7063
37.6916
38.3053
37.2274
37.6392
0.60751
0.865749
0.130574
0.164212
0.156461
0.143548
0.126924
0.10731
0.0853866
0.0617799
0.0367011
0.0120174
37.4494
37.4535
37.4669
37.4895
37.5211
37.5611
37.6081
37.6591
37.711
37.7059
38.2842
37.2251
37.6356
0.604203
0.862306
0.12781
0.16151
0.154024
0.141403
0.125091
0.105803
0.0842125
0.0609419
0.0361996
0.0118509
37.444
37.4481
37.4615
37.4843
37.5163
37.5574
37.6063
37.6603
37.7164
37.7215
38.2622
37.2241
37.6332
0.600654
0.858625
0.124856
0.158636
0.151435
0.139126
0.123147
0.104205
0.0829689
0.0600547
0.0356688
0.0116747
37.4385
37.4426
37.456
37.4788
37.5113
37.5534
37.6043
37.6616
37.7223
37.7383
38.2401
37.2249
37.6325
0.596918
0.854774
0.121758
0.155632
0.148731
0.136751
0.121121
0.102541
0.0816742
0.0591314
0.0351164
0.0114912
37.4331
37.4371
37.4504
37.4733
37.5061
37.5492
37.6022
37.6629
37.7288
37.756
38.2187
37.228
37.6343
0.593053
0.850816
0.118562
0.152543
0.145954
0.134313
0.119043
0.100836
0.0803478
0.0581857
0.0345506
0.0113033
37.4278
37.4317
37.4448
37.4677
37.5009
37.5449
37.5999
37.6643
37.7356
37.7742
38.199
37.234
37.6389
0.589109
0.846809
0.115314
0.149417
0.143146
0.131851
0.116945
0.0991154
0.0790102
0.0572321
0.0339801
0.0111137
37.4226
37.4264
37.4394
37.4622
37.4956
37.5406
37.5976
37.6656
37.7426
37.7927
38.1818
37.2431
37.6469
0.585152
0.842815
0.112067
0.146303
0.140351
0.129402
0.114861
0.097407
0.0776824
0.0562857
0.0334137
0.0109255
37.4177
37.4214
37.4341
37.4568
37.4904
37.5362
37.5952
37.6669
37.7496
37.8111
38.1677
37.2555
37.6586
0.581233
0.838898
0.108877
0.143253
0.137617
0.127008
0.112825
0.0957383
0.0763858
0.0553616
0.0328609
0.0107419
37.4133
37.4167
37.4292
37.4517
37.4855
37.532
37.5928
37.668
37.7566
37.829
38.1571
37.2713
37.6739
0.577452
0.835116
0.105799
0.140319
0.134988
0.124708
0.11087
0.0941374
0.0751422
0.0544755
0.032331
0.0105659
37.4092
37.4125
37.4247
37.447
37.4808
37.528
37.5905
37.6691
37.7633
37.846
38.1501
37.2901
37.6925
0.573832
0.831524
0.102891
0.13755
0.13251
0.122542
0.10903
0.0926315
0.0739728
0.0536426
0.0318331
0.0104007
37.4057
37.4087
37.4206
37.4427
37.4765
37.5242
37.5883
37.6701
37.7696
37.8619
38.1464
37.3112
37.7139
0.570453
0.828171
0.100209
0.134997
0.130227
0.120548
0.107338
0.0912469
0.0728981
0.0528776
0.031376
0.0102491
37.4029
37.4056
37.4171
37.4388
37.4726
37.5208
37.5863
37.671
37.7753
37.8763
38.1455
37.3339
37.737
0.567329
0.8251
0.0978109
0.132705
0.12818
0.118763
0.105823
0.0900085
0.0719374
0.052194
0.0309678
0.0101138
37.4009
37.4031
37.4142
37.4356
37.4693
37.5179
37.5846
37.6718
37.7804
37.889
38.1467
37.3568
37.7607
0.564541
0.822345
0.09575
0.130717
0.126408
0.117218
0.104514
0.0889388
0.0711079
0.0516041
0.0306155
0.00999706
37.3997
37.4014
37.4119
37.433
37.4666
37.5155
37.5832
37.6724
37.7846
37.8997
38.1489
37.3789
37.7836
0.5621
0.820354
0.0940976
0.129065
0.124944
0.115944
0.103435
0.0880572
0.0704246
0.0511183
0.0303256
0.00990106
37.3996
37.4004
37.4102
37.431
37.4646
37.5137
37.5822
37.673
37.788
37.9082
38.1516
37.3989
37.8042
0.561455
0.81678
0.0926029
0.127745
0.123817
0.114965
0.102606
0.0873801
0.0699
0.0507454
0.0301032
0.00982751
37.4007
37.4
37.4093
37.4298
37.4632
37.5126
37.5815
37.6735
37.7904
37.9143
38.153
37.4142
37.821
0.560936
0.81791
0.0921322
0.127092
0.123083
0.114302
0.102043
0.0869201
0.0695437
0.0504922
0.0299525
0.00977794
37.4043
37.4002
37.4089
37.4292
37.4626
37.5121
37.5813
37.6739
37.7918
37.9183
38.1528
37.4234
37.8328
0.559095
0.813787
0.0918814
0.126411
0.122635
0.113956
0.101755
0.0866857
0.0693623
0.0503634
0.0298767
0.00975364
37.4836
37.4821
37.4928
37.513
37.541
37.575
37.6125
37.6499
37.6861
37.6326
38.3905
37.2447
37.6574
0.615987
0.872017
0.144933
0.17607
0.167443
0.153374
0.135433
0.114409
0.0910104
0.0658745
0.0392111
0.0128771
37.4786
37.4806
37.492
37.5124
37.5405
37.5747
37.6124
37.6501
37.6866
37.634
38.3854
37.2421
37.6581
0.61549
0.874723
0.144389
0.175925
0.167161
0.153088
0.135184
0.114203
0.0908492
0.065759
0.0391407
0.0128527
37.4749
37.4784
37.4903
37.511
37.5394
37.5738
37.612
37.6503
37.6874
37.6373
38.3797
37.2401
37.6568
0.615829
0.872077
0.143214
0.175045
0.166487
0.152508
0.134688
0.113794
0.0905294
0.0655301
0.0390028
0.0128064
37.4712
37.4755
37.4879
37.5089
37.5376
37.5725
37.6114
37.6505
37.6886
37.642
38.3713
37.2376
37.6544
0.616706
0.872199
0.142194
0.174
0.165511
0.151648
0.13395
0.113186
0.0900547
0.0651904
0.0387989
0.0127383
37.4672
37.472
37.4849
37.5062
37.5353
37.5708
37.6105
37.6508
37.6901
37.6482
38.36
37.2344
37.6509
0.615418
0.870539
0.140705
0.172593
0.164226
0.150513
0.132979
0.112386
0.0894309
0.0647444
0.0385315
0.0126493
37.4629
37.468
37.4812
37.5028
37.5323
37.5685
37.6093
37.6511
37.692
37.656
38.346
37.2305
37.6466
0.613552
0.868481
0.138909
0.170851
0.162648
0.149121
0.131788
0.111405
0.0886659
0.0641977
0.0382041
0.0125404
37.4584
37.4637
37.4771
37.499
37.5289
37.5658
37.6079
37.6515
37.6945
37.6654
38.3292
37.2264
37.6417
0.611201
0.865961
0.136812
0.168802
0.160796
0.147487
0.130391
0.110256
0.0877697
0.0635577
0.037821
0.0124131
37.4535
37.4589
37.4725
37.4946
37.525
37.5627
37.6062
37.6519
37.6974
37.6763
38.3099
37.2222
37.6365
0.60844
0.863029
0.134429
0.166471
0.15869
0.145633
0.128807
0.108953
0.0867543
0.062833
0.0373873
0.0122691
37.4484
37.4538
37.4675
37.4898
37.5206
37.5592
37.6042
37.6523
37.7009
37.6887
38.2882
37.2183
37.6313
0.605317
0.85974
0.131786
0.163887
0.15636
0.143583
0.127056
0.107513
0.0856337
0.0620335
0.0369092
0.0121105
37.4431
37.4485
37.4622
37.4846
37.5158
37.5553
37.602
37.6527
37.7049
37.7025
38.2648
37.2152
37.6267
0.601884
0.856149
0.128913
0.161086
0.153836
0.141364
0.125162
0.105958
0.0844236
0.0611706
0.0363933
0.0119394
37.4376
37.443
37.4566
37.4792
37.5107
37.5511
37.5995
37.6532
37.7094
37.7174
38.2402
37.2133
37.6232
0.598202
0.852317
0.125844
0.158105
0.151153
0.139007
0.123153
0.104309
0.0831412
0.0602566
0.0358469
0.0117581
37.432
37.4374
37.4509
37.4735
37.5053
37.5466
37.5967
37.6535
37.7143
37.7332
38.2152
37.2131
37.6213
0.594319
0.848305
0.122623
0.154987
0.14835
0.136548
0.121057
0.10259
0.0818055
0.0593049
0.035278
0.0115694
37.4265
37.4318
37.4452
37.4677
37.4997
37.5419
37.5938
37.6538
37.7194
37.7495
38.1907
37.2152
37.6217
0.5903
0.844179
0.119295
0.151779
0.145469
0.134022
0.118907
0.100828
0.0804363
0.0583296
0.034695
0.0113759
37.4211
37.4262
37.4394
37.4618
37.4941
37.5369
37.5906
37.6539
37.7247
37.7661
38.1679
37.2201
37.6248
0.586208
0.840003
0.115912
0.148531
0.142555
0.131469
0.116735
0.0990487
0.0790547
0.0573456
0.0341068
0.0111806
37.4158
37.4208
37.4338
37.456
37.4884
37.5319
37.5873
37.6539
37.73
37.7825
38.1475
37.2282
37.6312
0.582104
0.835841
0.112528
0.145294
0.139653
0.128929
0.114576
0.097281
0.0776824
0.0563685
0.0335227
0.0109868
37.4109
37.4157
37.4284
37.4504
37.4828
37.5269
37.5839
37.6537
37.7351
37.7984
38.1303
37.2397
37.6412
0.578051
0.831759
0.109201
0.142122
0.136811
0.126445
0.112465
0.0955537
0.0763418
0.0554141
0.0329523
0.0107975
37.4063
37.4109
37.4233
37.445
37.4774
37.522
37.5805
37.6534
37.74
37.8136
38.1168
37.2547
37.6549
0.574125
0.82782
0.105989
0.139067
0.134078
0.124056
0.110438
0.0938955
0.0750553
0.0544986
0.0324053
0.0106161
37.4022
37.4065
37.4186
37.44
37.4723
37.5173
37.5772
37.653
37.7446
37.8277
38.1071
37.2729
37.6721
0.570373
0.824079
0.102952
0.136185
0.131501
0.121806
0.108529
0.092335
0.073845
0.0536376
0.0318912
0.0104456
37.3986
37.4027
37.4144
37.4354
37.4676
37.513
37.5741
37.6526
37.7489
37.8406
38.101
37.2937
37.692
0.566853
0.820589
0.100149
0.133525
0.129125
0.119734
0.106773
0.0908997
0.0727324
0.0528465
0.0314189
0.0102891
37.3957
37.3995
37.4107
37.4314
37.4633
37.509
37.5712
37.6521
37.7526
37.8521
38.0978
37.3164
37.7139
0.563628
0.817396
0.0976395
0.131137
0.126995
0.117878
0.1052
0.0896155
0.0717374
0.0521393
0.0309968
0.0101492
37.3936
37.3969
37.4077
37.428
37.4597
37.5056
37.5687
37.6517
37.7559
37.862
38.0968
37.3395
37.7364
0.560729
0.814539
0.0954801
0.129065
0.12515
0.116272
0.103841
0.0885058
0.070878
0.0515286
0.0306324
0.0100285
37.3924
37.3951
37.4053
37.4252
37.4568
37.5028
37.5666
37.6513
37.7586
37.8702
38.0971
37.3621
37.7584
0.558196
0.812417
0.0937359
0.127343
0.123626
0.114948
0.10272
0.0875912
0.0701698
0.0510255
0.0303322
0.00992912
37.3922
37.394
37.4036
37.4231
37.4545
37.5006
37.5651
37.651
37.7607
37.8768
38.0982
37.3825
37.7783
0.557485
0.808811
0.0922007
0.125976
0.122454
0.113929
0.101858
0.0868886
0.069626
0.0506393
0.030102
0.00985297
37.3933
37.3936
37.4025
37.4218
37.4531
37.4992
37.564
37.6509
37.7622
37.8815
38.0984
37.3981
37.7947
0.556898
0.809853
0.091674
0.125279
0.121686
0.113238
0.101273
0.0864113
0.0692567
0.0503771
0.029946
0.00980168
37.3969
37.3938
37.4021
37.4212
37.4524
37.4986
37.5637
37.6511
37.7632
37.8849
38.0974
37.4069
37.8063
0.555092
0.805686
0.0913863
0.124585
0.121224
0.112879
0.100974
0.086168
0.0690687
0.0502437
0.0298676
0.00977664
37.4766
37.476
37.4871
37.5073
37.5353
37.5693
37.6069
37.6444
37.6809
37.6296
38.377
37.2362
37.6489
0.612291
0.864197
0.147694
0.176381
0.167972
0.153998
0.136101
0.115089
0.0916658
0.0664531
0.03964
0.0130552
37.4717
37.4745
37.4862
37.5067
37.5348
37.5689
37.6067
37.6446
37.6813
37.631
38.3717
37.2334
37.6496
0.611766
0.866865
0.147143
0.176209
0.167671
0.153696
0.135841
0.114875
0.0914979
0.066333
0.039567
0.01303
37.468
37.4722
37.4845
37.5052
37.5335
37.568
37.6062
37.6447
37.682
37.6342
38.3654
37.2311
37.6481
0.612125
0.864201
0.145936
0.175298
0.166965
0.153091
0.135322
0.114447
0.0911648
0.0660949
0.0394239
0.012982
37.4641
37.4692
37.482
37.503
37.5316
37.5665
37.6054
37.6447
37.683
37.6389
38.356
37.2282
37.6454
0.612976
0.864184
0.144845
0.174198
0.165944
0.152191
0.134552
0.113813
0.0906702
0.0657417
0.0392123
0.0129115
37.4601
37.4657
37.4789
37.5001
37.5291
37.5644
37.6042
37.6447
37.6842
37.645
38.3436
37.2246
37.6416
0.611554
0.862439
0.143286
0.172715
0.164594
0.151001
0.133537
0.112978
0.0900201
0.0652778
0.0389347
0.0128193
37.4558
37.4616
37.4751
37.4966
37.5259
37.5619
37.6026
37.6445
37.6858
37.6526
38.328
37.2201
37.6366
0.609571
0.860241
0.141397
0.170884
0.162938
0.149542
0.132291
0.111954
0.0892226
0.0647089
0.0385945
0.0127063
37.4511
37.4571
37.4708
37.4925
37.5222
37.5588
37.6007
37.6444
37.6877
37.6616
38.3092
37.2151
37.6308
0.607094
0.857557
0.139188
0.168729
0.160992
0.14783
0.130829
0.110753
0.088288
0.0640425
0.0381962
0.0125742
37.4461
37.4522
37.466
37.4879
37.5179
37.5553
37.5984
37.6441
37.6899
37.6722
38.2873
37.2099
37.6245
0.60417
0.854439
0.136674
0.166275
0.158781
0.145885
0.12917
0.109391
0.0872285
0.0632873
0.037745
0.0124247
37.4409
37.447
37.4608
37.4828
37.5131
37.5512
37.5957
37.6437
37.6926
37.684
38.2626
37.2049
37.6179
0.600867
0.850944
0.133883
0.163555
0.156331
0.143733
0.127335
0.107886
0.0860584
0.0624537
0.0372471
0.0122597
37.4354
37.4415
37.4553
37.4773
37.5079
37.5467
37.5926
37.6431
37.6955
37.6969
38.2355
37.2004
37.6116
0.597229
0.847128
0.130845
0.160603
0.153675
0.141403
0.12535
0.106258
0.084794
0.0615533
0.0367094
0.0120816
37.4298
37.4359
37.4495
37.4715
37.5023
37.5417
37.5892
37.6422
37.6985
37.7106
38.2067
37.197
37.6061
0.593338
0.843057
0.127598
0.157459
0.150851
0.138926
0.123241
0.104531
0.083453
0.0605988
0.0361396
0.0118929
37.4242
37.4301
37.4436
37.4655
37.4963
37.5364
37.5853
37.6411
37.7017
37.7247
38.1771
37.1953
37.6018
0.589226
0.838796
0.124186
0.154169
0.147897
0.136339
0.121041
0.10273
0.0820552
0.0596042
0.0355457
0.0116961
37.4185
37.4243
37.4376
37.4593
37.4902
37.5308
37.5811
37.6397
37.7047
37.7388
38.1477
37.1956
37.5993
0.584975
0.834414
0.120659
0.150781
0.144859
0.13368
0.118781
0.100881
0.0806212
0.0585842
0.0349367
0.0114942
37.4129
37.4185
37.4315
37.453
37.4839
37.5249
37.5765
37.6379
37.7075
37.7524
38.1196
37.1987
37.5994
0.580647
0.829979
0.11707
0.147347
0.141782
0.13099
0.116497
0.0990129
0.0791729
0.0575543
0.0343218
0.0112904
37.4075
37.4129
37.4257
37.4468
37.4776
37.5189
37.5718
37.6357
37.7099
37.7653
38.094
37.2049
37.6025
0.576306
0.82556
0.113477
0.143922
0.138716
0.128311
0.114225
0.0971555
0.0777334
0.0565308
0.0337109
0.011088
37.4024
37.4076
37.42
37.4408
37.4713
37.5129
37.5669
37.6334
37.712
37.777
38.0718
37.2146
37.6092
0.572018
0.821226
0.10994
0.140563
0.135712
0.125688
0.112001
0.095339
0.076326
0.0555305
0.033114
0.0108902
37.3977
37.4027
37.4146
37.435
37.4653
37.507
37.5619
37.6308
37.7137
37.7876
38.0536
37.228
37.6196
0.567873
0.817044
0.106522
0.137326
0.13282
0.123166
0.109863
0.0935939
0.0749744
0.0545702
0.0325411
0.0107005
37.3934
37.3981
37.4097
37.4296
37.4596
37.5014
37.5571
37.6281
37.715
37.7968
38.0395
37.2449
37.6333
0.563896
0.813075
0.103287
0.134269
0.130091
0.120788
0.107849
0.0919505
0.0737022
0.0536667
0.0320023
0.010522
37.3897
37.3942
37.4052
37.4247
37.4543
37.4961
37.5525
37.6255
37.716
37.8047
38.0293
37.2646
37.6498
0.560182
0.809375
0.100298
0.131447
0.127574
0.118596
0.105995
0.0904382
0.072532
0.0528359
0.0315068
0.010358
37.3867
37.3908
37.4014
37.4203
37.4495
37.4913
37.5483
37.623
37.7167
37.8114
38.0222
37.2866
37.6682
0.556772
0.805995
0.097618
0.128912
0.125316
0.116632
0.104334
0.0890844
0.0714849
0.0520926
0.0310636
0.0102112
37.3845
37.3881
37.3981
37.4166
37.4455
37.4871
37.5446
37.6207
37.7171
37.8168
38.0175
37.3095
37.6876
0.553696
0.802978
0.0953081
0.126712
0.12336
0.114932
0.102898
0.087914
0.07058
0.0514505
0.0306807
0.0100845
37.3832
37.3862
37.3956
37.4136
37.4421
37.4837
37.5415
37.6187
37.7174
37.8211
38.0146
37.3322
37.7067
0.551027
0.800685
0.0934353
0.124885
0.121744
0.11353
0.101713
0.086949
0.0698341
0.0509213
0.0303653
0.00998006
37.383
37.385
37.3938
37.4114
37.4396
37.4811
37.5392
37.6172
37.7176
37.8245
38.0129
37.3529
37.7241
0.550204
0.797008
0.0918155
0.123434
0.120499
0.112451
0.100803
0.0862076
0.0692611
0.0505149
0.0301232
0.0099001
37.3841
37.3846
37.3927
37.4099
37.4379
37.4793
37.5376
37.6163
37.7177
37.8269
38.011
37.3689
37.7388
0.549562
0.797947
0.0912199
0.122681
0.119684
0.111719
0.100183
0.0857038
0.0688719
0.0502389
0.0299592
0.00984632
37.3876
37.3848
37.3922
37.4092
37.4372
37.4785
37.5369
37.616
37.718
37.8291
38.0097
37.3773
37.7492
0.547716
0.793757
0.0908901
0.121965
0.119199
0.11134
0.0998672
0.0854472
0.0686739
0.0500985
0.0298766
0.00982008
37.4685
37.4682
37.4795
37.4998
37.5277
37.5617
37.5994
37.6372
37.6739
37.6256
38.359
37.2246
37.6371
0.607107
0.853674
0.151478
0.176936
0.168767
0.154893
0.13704
0.116034
0.0925682
0.0672454
0.0402255
0.0132977
37.4635
37.4667
37.4786
37.4991
37.5271
37.5612
37.5991
37.6373
37.6742
37.627
38.3534
37.2216
37.6378
0.606537
0.856306
0.150916
0.176731
0.168443
0.154573
0.136765
0.115807
0.0923913
0.0671192
0.040149
0.0132715
37.4597
37.4644
37.4769
37.4975
37.5257
37.5601
37.5985
37.6372
37.6748
37.6301
38.3464
37.219
37.6361
0.606886
0.853606
0.149663
0.175779
0.167695
0.15393
0.136216
0.115356
0.0920403
0.066869
0.0399991
0.0132214
37.4559
37.4613
37.4743
37.4952
37.5237
37.5584
37.5973
37.6369
37.6755
37.6346
38.3359
37.2157
37.6329
0.60767
0.853409
0.148484
0.1746
0.166609
0.152976
0.1354
0.114686
0.0915192
0.0664978
0.0397772
0.0131476
37.4517
37.4577
37.471
37.4922
37.5209
37.5561
37.5957
37.6364
37.6763
37.6405
38.3218
37.2114
37.6284
0.606105
0.851535
0.146825
0.173015
0.165173
0.151713
0.134325
0.113804
0.0908341
0.0660099
0.0394859
0.0130511
37.4473
37.4535
37.4671
37.4884
37.5174
37.5531
37.5937
37.6357
37.6773
37.6478
38.304
37.206
37.6225
0.603946
0.849147
0.144811
0.171064
0.163411
0.150165
0.133006
0.112722
0.0899931
0.0654112
0.0391287
0.0129328
37.4425
37.4489
37.4626
37.484
37.5133
37.5495
37.5911
37.6348
37.6785
37.6565
38.2824
37.1998
37.6154
0.601263
0.846241
0.142449
0.168765
0.16134
0.148346
0.131456
0.111452
0.089007
0.0647094
0.03871
0.0127943
37.4374
37.4438
37.4576
37.4791
37.5085
37.5453
37.588
37.6336
37.6798
37.6664
38.2571
37.1933
37.6075
0.598112
0.84287
0.139757
0.166147
0.158984
0.146279
0.129697
0.11001
0.0878882
0.0639135
0.0382353
0.0126372
37.432
37.4384
37.4521
37.4737
37.5032
37.5405
37.5843
37.632
37.6812
37.6773
38.2281
37.1866
37.599
0.594562
0.839093
0.136764
0.163241
0.156373
0.14399
0.127749
0.108416
0.0866516
0.0630342
0.037711
0.0124638
37.4264
37.4327
37.4463
37.4678
37.4974
37.5352
37.5801
37.63
37.6825
37.6888
38.1961
37.1803
37.5902
0.59066
0.834973
0.133503
0.160086
0.153539
0.141508
0.12564
0.106691
0.0853141
0.0620834
0.0371441
0.0122764
37.4206
37.4268
37.4402
37.4615
37.4912
37.5293
37.5753
37.6274
37.6835
37.7006
38.1615
37.1748
37.5815
0.586462
0.830578
0.130014
0.156722
0.150522
0.138869
0.123399
0.104859
0.0838943
0.0610745
0.0365427
0.0120774
37.4147
37.4208
37.434
37.455
37.4845
37.5229
37.5699
37.6242
37.6841
37.7119
38.1253
37.1707
37.5733
0.582041
0.825977
0.126343
0.153198
0.147364
0.136108
0.121057
0.102946
0.0824126
0.0600221
0.0359153
0.0118699
37.4089
37.4148
37.4276
37.4483
37.4776
37.5161
37.564
37.6204
37.684
37.7224
38.0888
37.1684
37.5663
0.577468
0.821244
0.122544
0.149564
0.144112
0.133268
0.118649
0.10098
0.0808909
0.0589416
0.0352712
0.0116568
37.4031
37.4088
37.4213
37.4415
37.4705
37.509
37.5576
37.6159
37.6832
37.7313
38.0534
37.1686
37.5609
0.572813
0.816455
0.118673
0.145877
0.140814
0.130391
0.116212
0.0989917
0.0793526
0.0578496
0.0346204
0.0114415
37.3975
37.403
37.415
37.4348
37.4633
37.5017
37.5509
37.6109
37.6816
37.7385
38.0204
37.1719
37.558
0.568135
0.811684
0.114792
0.142196
0.137525
0.127524
0.113785
0.0970126
0.077822
0.0567635
0.0339732
0.0112274
37.3922
37.3974
37.409
37.4282
37.4563
37.4944
37.544
37.6055
37.6792
37.7437
37.9912
37.1785
37.5585
0.563531
0.807005
0.110968
0.138581
0.134299
0.124714
0.111408
0.0950752
0.0763241
0.055701
0.0333403
0.0110181
37.3873
37.3922
37.4033
37.422
37.4494
37.4872
37.537
37.5998
37.6763
37.7471
37.9662
37.189
37.5625
0.559052
0.802491
0.107268
0.135095
0.13119
0.122009
0.109121
0.0932122
0.0748845
0.0546802
0.0327323
0.0108171
37.3829
37.3875
37.3981
37.4161
37.4429
37.4803
37.5301
37.594
37.6729
37.749
37.9456
37.2029
37.5693
0.554784
0.798209
0.103761
0.131799
0.128254
0.119456
0.106964
0.0914564
0.0735283
0.0537189
0.0321598
0.0106278
37.3791
37.3833
37.3933
37.4107
37.4368
37.4738
37.5236
37.5884
37.6693
37.7496
37.9289
37.2197
37.5786
0.550785
0.794222
0.100516
0.128755
0.125544
0.117101
0.104977
0.0898394
0.0722798
0.0528341
0.0316329
0.0104536
37.3759
37.3798
37.3892
37.4059
37.4314
37.4679
37.5176
37.5831
37.6657
37.7493
37.9157
37.2391
37.5898
0.547112
0.790585
0.097603
0.126019
0.123111
0.11499
0.103195
0.0883909
0.0711619
0.052042
0.0311612
0.0102976
37.3736
37.377
37.3858
37.4018
37.4267
37.4627
37.5123
37.5783
37.6623
37.7484
37.9051
37.2594
37.6018
0.543806
0.787346
0.0950865
0.123643
0.121003
0.113162
0.101654
0.087138
0.0701952
0.0513572
0.0307534
0.0101627
37.3722
37.3749
37.383
37.3985
37.4229
37.4584
37.5079
37.5742
37.6593
37.7472
37.8969
37.2788
37.6139
0.54093
0.784833
0.0930392
0.121672
0.119261
0.111654
0.100382
0.0861045
0.0693981
0.0507925
0.0304172
0.0100516
37.3719
37.3736
37.3811
37.396
37.42
37.4552
37.5045
37.5711
37.6568
37.746
37.8904
37.2962
37.6252
0.539947
0.781046
0.091291
0.12011
0.117919
0.110492
0.0994043
0.0853102
0.0687855
0.0503587
0.0301592
0.00996661
37.3729
37.3731
37.3798
37.3944
37.4181
37.453
37.5023
37.569
37.655
37.7451
37.8847
37.3099
37.635
0.539233
0.78186
0.0906056
0.119277
0.117036
0.109704
0.0987393
0.0847702
0.0683693
0.0500641
0.0299843
0.0099094
37.3764
37.3733
37.3793
37.3937
37.4172
37.452
37.5012
37.568
37.6543
37.7452
37.881
37.3143
37.6419
0.537321
0.777623
0.0902184
0.118529
0.116518
0.109296
0.0983999
0.0844954
0.0681576
0.0499141
0.0298961
0.00988134
37.459
37.459
37.4704
37.4906
37.5183
37.5522
37.59
37.6282
37.6652
37.6206
38.3366
37.2101
37.6221
0.600491
0.840321
0.156198
0.17778
0.169837
0.156051
0.138236
0.117229
0.0937068
0.0682436
0.0409629
0.0136033
37.4541
37.4574
37.4694
37.4898
37.5176
37.5517
37.5897
37.6281
37.6654
37.622
38.3307
37.2068
37.6227
0.599876
0.842908
0.155619
0.177532
0.169484
0.155708
0.137942
0.116987
0.0935187
0.0681098
0.0408821
0.0135757
37.4502
37.455
37.4676
37.4881
37.5161
37.5504
37.5888
37.6278
37.6658
37.625
38.3227
37.2039
37.6207
0.600217
0.84015
0.154305
0.176528
0.168681
0.155019
0.137355
0.116506
0.0931455
0.0678446
0.0407237
0.013523
37.4463
37.4519
37.4649
37.4856
37.5138
37.5484
37.5873
37.6271
37.6661
37.6293
38.3108
37.1999
37.617
0.600899
0.839729
0.153017
0.175249
0.167513
0.153996
0.136482
0.115791
0.0925911
0.0674507
0.0404889
0.0134452
37.442
37.4481
37.4614
37.4823
37.5107
37.5456
37.5852
37.6261
37.6664
37.6349
38.2947
37.1948
37.6115
0.59914
0.837681
0.151231
0.173538
0.165968
0.152641
0.135333
0.11485
0.0918618
0.0669327
0.0401805
0.0133433
37.4375
37.4438
37.4573
37.4783
37.5069
37.5421
37.5825
37.6247
37.6667
37.6417
38.2741
37.1882
37.6044
0.596769
0.835051
0.149054
0.171433
0.164072
0.150979
0.13392
0.113695
0.0909662
0.0662966
0.0398018
0.0132182
37.4325
37.439
37.4526
37.4736
37.5023
37.5379
37.5791
37.6228
37.6669
37.6497
38.249
37.1806
37.5958
0.593841
0.831858
0.146496
0.168952
0.161842
0.149025
0.13226
0.112338
0.0899151
0.0655504
0.0393576
0.0130716
37.4273
37.4338
37.4473
37.4683
37.497
37.533
37.575
37.6204
37.667
37.6587
38.2193
37.1723
37.5858
0.590409
0.828162
0.143577
0.166124
0.159302
0.146803
0.130373
0.110796
0.0887216
0.0647032
0.0388534
0.0129052
37.4217
37.4281
37.4415
37.4624
37.4911
37.5273
37.5702
37.6173
37.6667
37.6682
38.1851
37.1635
37.5745
0.586531
0.824023
0.140326
0.162982
0.156485
0.144339
0.128283
0.10909
0.0874011
0.0637662
0.0382958
0.0127211
37.4159
37.4222
37.4354
37.456
37.4845
37.5209
37.5645
37.6134
37.6658
37.6777
38.1466
37.1547
37.5622
0.582267
0.81951
0.136778
0.159566
0.153424
0.141665
0.126016
0.107241
0.085971
0.0627518
0.0376921
0.0125219
37.4099
37.4161
37.429
37.4493
37.4775
37.5138
37.558
37.6086
37.664
37.6864
38.1045
37.1465
37.5489
0.577695
0.814695
0.132977
0.155921
0.150161
0.138817
0.123605
0.105275
0.0844512
0.061674
0.0370508