/*--------------------------------*- C++ -*----------------------------------*\
  =========                 |
  \\      /  F ield         | OpenFOAM: The Open Source CFD Toolbox
   \\    /   O peration     | Website:  https://openfoam.org
    \\  /    A nd           | Version:  11
     \\/     M anipulation  |
\*---------------------------------------------------------------------------*/
FoamFile
{
    format      ascii;
    class       volScalarField;
    location    "35";
    object      k;
}
// * * * * * * * * * * * * * * * * * * * * * * * * * * * * * * * * * * * * * //

dimensions      [0 2 -2 0 0 0 0];

internalField   nonuniform List<scalar> 
17196
(
0.0088615
0.00776578
0.00743157
0.00786376
0.00800028
0.00813971
0.00809214
0.0082032
0.0084481
0.00847769
0.0083017
0.00783576
0.00706916
0.00645627
0.00626745
0.00667794
0.00787003
0.00898545
0.00979097
0.00997361
0.0104758
0.00869464
0.0077799
0.00800907
0.00681841
0.00893311
0.00695934
0.00780008
0.00781345
0.00804605
0.00736968
0.0060208
0.00787867
0.00808259
0.00793396
0.00821355
0.00814952
0.00777248
0.00715484
0.00717112
0.00749799
0.00849409
0.00928843
0.00955956
0.00984734
0.010674
0.0155872
0.0176864
0.0136538
0.00887462
0.00877046
0.00720194
0.00753917
0.00823937
0.00776601
0.00747663
0.0065899
0.00646496
0.00764134
0.0082859
0.00862277
0.00851411
0.00792677
0.00724192
0.007448
0.00817292
0.00792122
0.0104743
0.0114457
0.0096184
0.0147319
0.0199539
0.0222849
0.0140233
0.00929144
0.00844062
0.00793546
0.00833387
0.00879269
0.00824807
0.00838862
0.00780922
0.00774773
0.0072341
0.00802855
0.00841064
0.00853765
0.00783115
0.0074391
0.00760199
0.00692988
0.00815091
0.00888423
0.0117187
0.0170552
0.0227318
0.0308815
0.034005
0.0206731
0.00963123
0.00844935
0.00894877
0.00920324
0.00934763
0.00859239
0.00865042
0.00872311
0.00832871
0.00760559
0.00826544
0.00851284
0.00886031
0.00859578
0.00859221
0.00924576
0.00924554
0.0111904
0.0122594
0.0169642
0.0248685
0.0382726
0.0498987
0.0503053
0.0460116
0.0057656
0.00850373
0.00857831
0.00926026
0.00941944
0.00858333
0.00844787
0.00872393
0.00858488
0.00843922
0.0079643
0.00800409
0.0101763
0.010963
0.0116741
0.0118245
0.0132859
0.0139184
0.0197574
0.0229104
0.0392958
0.0581113
0.0712147
0.065739
0.102361
0.0032923
0.00856127
0.00894532
0.0104936
0.0101565
0.00884099
0.00826505
0.00797609
0.00846141
0.0083083
0.00814433
0.00801737
0.00855208
0.0121508
0.0133678
0.0144493
0.0165285
0.0181393
0.022329
0.0328091
0.0524748
0.0751174
0.0892989
0.0692228
0.0906725
0.0161292
0.00859766
0.00808763
0.00921792
0.0104659
0.00909718
0.0080748
0.00805344
0.00791597
0.00811763
0.00860694
0.00874093
0.0102546
0.0130831
0.0144755
0.0172325
0.0213041
0.0264077
0.0334022
0.0441608
0.0749555
0.0987986
0.101094
0.058583
0.0456987
0.0123554
0.00862555
0.00796823
0.00969578
0.00998059
0.00935851
0.00804334
0.00844428
0.00813716
0.00828974
0.00875377
0.0097385
0.011895
0.0136334
0.0127164
0.0139904
0.0200484
0.0307369
0.0402748
0.0552203
0.0862646
0.111162
0.100815
0.0609984
0.0426855
0.00711775
0.00863484
0.00833081
0.00980179
0.010191
0.00985526
0.00841127
0.00746077
0.00788727
0.00760186
0.00825379
0.00840535
0.00908445
0.0100561
0.0133176
0.0134375
0.0166614
0.0254911
0.0373473
0.050015
0.0751302
0.110739
0.113686
0.0572272
0.0188688
0.00830416
0.00874584
0.00845537
0.00933925
0.009961
0.0096236
0.0087417
0.00746083
0.00785868
0.00796028
0.0080719
0.00791607
0.0073214
0.0086164
0.0104233
0.0143147
0.0160951
0.0212817
0.031651
0.043232
0.0597017
0.0883915
0.086525
0.0649231
0.00711771
0.00950998
0.00915226
0.00773751
0.00892164
0.00956127
0.00950515
0.00863774
0.00760074
0.00736812
0.00695652
0.00709979
0.00723444
0.00721876
0.00716361
0.00885634
0.0121089
0.015912
0.0215948
0.0281949
0.0325006
0.0368323
0.0481714
0.0576123
0.0457143
0.00630615
0.00965405
0.00880742
0.00799531
0.00903621
0.00941866
0.00942047
0.00870755
0.0078258
0.00735714
0.00714663
0.00687393
0.00727701
0.00703591
0.00709955
0.00776722
0.0102042
0.0135976
0.0145495
0.0151653
0.0181617
0.0227368
0.0289984
0.02957
0.0211741
0.00752464
0.00880014
0.0093452
0.00751932
0.00836753
0.00908726
0.00927385
0.00874482
0.00788981
0.00735287
0.00732963
0.0068595
0.00749524
0.00751307
0.00718238
0.00764762
0.00851724
0.00989466
0.0112168
0.0128313
0.0152811
0.017532
0.0225726
0.0245217
0.0179182
0.0075961
0.0084035
0.00876167
0.00805303
0.00798305
0.00882826
0.00922599
0.00871892
0.00793001
0.00736275
0.00741132
0.0068319
0.007454
0.00761062
0.00717497
0.00711414
0.00741174
0.00824167
0.00940262
0.0101795
0.0111875
0.012027
0.0157636
0.0230686
0.0174594
0.0118601
0.0060189
0.00931721
0.00764357
0.0083351
0.00872588
0.00899159
0.00883392
0.0080171
0.0074972
0.00723484
0.00752819
0.00699873
0.0077226
0.00789255
0.00735695
0.00729007
0.00757187
0.00851525
0.00894209
0.00868052
0.0100532
0.0112694
0.0120783
0.00622971
0.00994306
0.00679106
0.00908609
0.00817192
0.00759427
0.00832994
0.00875186
0.00863118
0.00801868
0.00749732
0.00744559
0.00758709
0.00733764
0.00702548
0.00777936
0.00707438
0.00733986
0.00698061
0.00686515
0.00710713
0.00748764
0.00840728
0.00968777
0.0105476
0.00564078
0.00946025
0.0083216
0.00978405
0.00713877
0.00697899
0.00781814
0.00838439
0.00853684
0.00780622
0.00815294
0.00832494
0.00819668
0.00737578
0.00822439
0.00787782
0.00666254
0.00642251
0.0060879
0.00561383
0.00584625
0.0060124
0.00658932
0.00770099
0.0095855
0.00608892
0.0111893
0.0088441
0.00950132
0.00765144
0.00806451
0.00832297
0.00853929
0.00853194
0.00804049
0.00749006
0.00739077
0.00683247
0.00741436
0.00688011
0.00764621
0.00683441
0.00594485
0.00532674
0.0048781
0.00519358
0.00525628
0.00520741
0.00585265
0.00815513
0.0061802
0.00939565
0.00920882
0.0100756
0.00689687
0.00675104
0.00772993
0.00836151
0.00848403
0.00809563
0.00764714
0.00723954
0.00713064
0.00740471
0.00774569
0.00750886
0.00740909
0.0069102
0.00666389
0.00564266
0.00522333
0.00537175
0.00526041
0.00530979
0.00737286
0.00586649
0.00819131
0.00938419
0.0102353
0.00668056
0.00742396
0.00756849
0.00815851
0.00848386
0.00825774
0.00779273
0.00745182
0.00718448
0.00682108
0.00718212
0.00745259
0.0067316
0.00608521
0.00546903
0.00562188
0.00574588
0.00523115
0.00514794
0.00497871
0.00661079
0.00591867
0.00750506
0.00946391
0.0104623
0.00638941
0.00618937
0.00667807
0.00772558
0.00827175
0.00816259
0.00779411
0.00751404
0.007318
0.00697218
0.00675066
0.0062233
0.00622288
0.00620531
0.00587934
0.00643606
0.00639529
0.00517924
0.00520055
0.00509034
0.00604461
0.00537911
0.00645246
0.00990107
0.00973333
0.00703056
0.0062076
0.00630937
0.0074691
0.00813494
0.00820393
0.00797504
0.0076603
0.00751034
0.00715629
0.00683721
0.00657365
0.00626693
0.00603203
0.00598525
0.00574165
0.00584737
0.00538404
0.00512623
0.0051738
0.00562745
0.00553896
0.00904801
0.00977717
0.00932852
0.00726988
0.00576121
0.00712597
0.00746585
0.00803686
0.00833613
0.00810823
0.00831351
0.00791664
0.00730695
0.00735381
0.00744349
0.00675559
0.00676305
0.00694646
0.006791
0.00612495
0.00573151
0.00561163
0.00534361
0.00521339
0.0063851
0.00970037
0.0101976
0.00888075
0.00793537
0.00759335
0.00761242
0.00746151
0.00728467
0.0070935
0.00705293
0.00707316
0.00666265
0.00757486
0.00694324
0.00840887
0.00881247
0.00744397
0.00834411
0.00760036
0.00680591
0.00703113
0.00668484
0.00617837
0.00594535
0.00593873
0.00803743
0.0103221
0.00915497
0.00725522
0.00585523
0.00735995
0.00921462
0.00998484
0.0100529
0.00966597
0.00978478
0.00923722
0.00875758
0.00767478
0.00711579
0.00729076
0.00753106
0.00783861
0.00809162
0.00974896
0.0109614
0.00799077
0.012918
0.0119576
0.0113327
0.013107
0.0111033
0.00331101
0.00470001
0.0188702
0.00641716
0.00737412
0.00789495
0.00665006
0.00582355
0.00656598
0.00608084
0.00623539
0.00530393
0.00552356
0.006027
0.00653452
0.00648607
0.0101755
0.0145479
0.0159852
0.0150426
0.0159195
0.0248028
0.0212015
0.0168158
0.0158831
0.00296523
0.00245267
0.0123948
0.0115383
0.0126046
0.0100771
0.00626909
0.00786182
0.00693823
0.00544874
0.0069904
0.00814525
0.00826898
0.0102141
0.00592189
0.00815769
0.00744392
0.0144164
0.0188617
0.0209809
0.0344354
0.0299687
0.0296619
0.0146168
0.00387902
0.00302738
0.00190477
0.00651992
0.0119549
0.0145496
0.017416
0.0153531
0.0111012
0.00953367
0.00849468
0.0088652
0.00874215
0.0078972
0.0124555
0.00814174
0.00666469
0.0117498
0.0129591
0.025777
0.031052
0.0480536
0.0477487
0.0343808
0.0305403
0.00425582
0.00304066
0.00192749
0.00396236
0.00770321
0.0122206
0.015484
0.022039
0.0154126
0.0102984
0.00986361
0.00833326
0.00805971
0.00846328
0.0120917
0.00964388
0.0116508
0.0143593
0.0192009
0.0301894
0.0395425
0.0721111
0.0842992
0.0823978
0.0900642
0.000390912
0.00305362
0.00190065
0.00311663
0.00472315
0.00775827
0.00995224
0.020502
0.0175999
0.0107775
0.00926095
0.00930309
0.010274
0.0103095
0.0105699
0.0135635
0.0173053
0.0211105
0.0265155
0.0414579
0.0588484
0.092525
0.125989
0.0882533
0.209266
0.0461837
0.00305198
0.00188205
0.00278864
0.00343548
0.00508386
0.00744943
0.0120498
0.0156543
0.01643
0.0100814
0.00983154
0.0104751
0.0126753
0.0150076
0.0173407
0.0226856
0.0258722
0.0315327
0.0469986
0.0658366
0.110018
0.153812
0.111799
0.187198
0.0949763
0.00307504
0.00179865
0.00238798
0.00361268
0.0040217
0.00543622
0.00798939
0.0115379
0.0142979
0.0111348
0.010726
0.0114419
0.0123127
0.0157619
0.0180627
0.0228995
0.0206986
0.0366009
0.0480749
0.0757696
0.126196
0.183014
0.0970154
0.156044
0.0801045
0.00308806
0.00170033
0.00208682
0.00263246
0.00320687
0.00387001
0.00559196
0.00727424
0.00957323
0.00999452
0.00842499
0.0110809
0.0105487
0.0114531
0.0122866
0.016013
0.0227201
0.0453887
0.0552803
0.0909711
0.171026
0.202834
0.107815
0.123301
0.058015
0.00310948
0.00158342
0.00188963
0.00257526
0.00281469
0.00322084
0.00350142
0.00345482
0.00673555
0.00813184
0.0076133
0.00784045
0.00899393
0.0112103
0.0129752
0.0162408
0.0229213
0.0460112
0.0504564
0.0849727
0.179979
0.191119
0.0467626
0.0179699
0.00673725
0.0030946
0.0016792
0.00149912
0.00227036
0.00253361
0.00277376
0.00265851
0.00271595
0.00368189
0.00713863
0.00815949
0.0080766
0.00872956
0.0103671
0.0123325
0.0154725
0.0194815
0.0339138
0.0365111
0.0600831
0.157813
0.180164
0.0400937
0.00546393
0.0055734
0.00311359
0.00152924
0.00135083
0.00229035
0.00208976
0.00221159
0.00207262
0.00199623
0.00218892
0.00486825
0.00628955
0.0074467
0.00780101
0.00778785
0.0102507
0.0139361
0.0182639
0.0202144
0.02455
0.0393993
0.0996639
0.19209
0.0470075
0.00189444
0.00450923
0.00315972
0.00132277
0.00143704
0.00216523
0.00196029
0.00213989
0.00204105
0.00171383
0.00170868
0.00319433
0.00581706
0.00712103
0.00728733
0.00730078
0.00913382
0.0117778
0.0138162
0.0153229
0.0191726
0.0255283
0.0486297
0.08384
0.0472948
0.00282046
0.00395856
0.00316001
0.00130605
0.0014911
0.00182648
0.00204948
0.00209494
0.00196425
0.00158312
0.00144223
0.00239214
0.00452561
0.00751687
0.007158
0.00793149
0.0084636
0.00974801
0.011744
0.0135205
0.0170677
0.0200468
0.0430479
0.0907746
0.0451445
0.00234696
0.00469756
0.00317178
0.00124399
0.00148211
0.00161826
0.00190261
0.00203664
0.00192855
0.00178186
0.00150362
0.0019652
0.00306519
0.00511802
0.00640216
0.00668681
0.0065056
0.00778819
0.0104532
0.0117092
0.0151
0.0146294
0.0257751
0.0775529
0.0572732
0.00100296
0.00390443
0.00318704
0.00115934
0.00140124
0.00147668
0.00173253
0.00178546
0.00183616
0.001834
0.00155963
0.00188871
0.00250053
0.00397271
0.00477617
0.00534309
0.00549401
0.00680465
0.00923396
0.0109253
0.0126101
0.0123902
0.0172473
0.0372122
0.0315169
0.0143364
0.00394417
0.00315631
0.00133893
0.00116599
0.00137745
0.0015888
0.00182391
0.00182291
0.00182158
0.00158764
0.00169893
0.00233997
0.0032054
0.00390884
0.00447292
0.00482076
0.00568145
0.00973962
0.0102596
0.0109023
0.0111385
0.0127134
0.0184275
0.0147546
0.0151775
0.00391199
0.00314749
0.00138331
0.00105342
0.00130001
0.00157533
0.00166341
0.00165498
0.00154762
0.00154738
0.00177986
0.00196753
0.00280316
0.00391555
0.0040254
0.00405281
0.00441523
0.0075128
0.00844389
0.010201
0.0103987
0.0093184
0.0120055
0.00846045
0.0107241
0.00378328
0.00314476
0.00139157
0.000940533
0.00121428
0.00128055
0.00130535
0.00146126
0.00134755
0.00148446
0.00169707
0.00182452
0.00254145
0.00306666
0.00304931
0.00354698
0.00388076
0.00525341
0.00716294
0.00996096
0.0112364
0.00815818
0.00830881
0.00695616
0.00717685
0.00329589
0.00314771
0.00137885
0.000914959
0.00111801
0.00134774
0.00132309
0.00131063
0.00124863
0.00140278
0.00162522
0.00181473
0.00219753
0.00252742
0.00250697
0.00258692
0.00372339
0.00404964
0.00727576
0.0105359
0.0121049
0.00802696
0.00868045
0.00471989
0.00620211
0.00426611
0.00315262
0.00136139
0.000883893
0.00105156
0.00123281
0.00134417
0.00139651
0.0014623
0.00141117
0.00149767
0.00174877
0.00202194
0.00213536
0.00232301
0.00255575
0.00337062
0.00408277
0.00534864
0.0108155
0.0119355
0.00851753
0.0111729
0.00598928
0.00543783
0.0042937
0.003161
0.00133589
0.00087583
0.00107634
0.00100402
0.00130593
0.00124833
0.00122964
0.00143816
0.00168
0.00190526
0.00205985
0.00212947
0.00223293
0.00248312
0.00285402
0.00386118
0.00475849
0.00708301
0.0164486
0.0147596
0.0163395
0.0160513
0.00486258
0.00456423
0.00315936
0.0013119
0.000821931
0.000954939
0.00114863
0.00112538
0.00124369
0.00142771
0.00154716
0.00178312
0.00184253
0.00197378
0.0020162
0.00204402
0.00209391
0.00236858
0.00345706
0.00471649
0.00587236
0.017063
0.0239263
0.0166618
0.0202927
0.0114052
0.00670526
0.00315357
0.00126435
0.000788507
0.000731275
0.000749416
0.000778562
0.00113377
0.00164993
0.00212781
0.0019762
0.00212913
0.00209277
0.00195967
0.00199597
0.00207492
0.00227467
0.00320881
0.0043603
0.00617919
0.00896645
0.0169935
0.0164452
0.0155913
0.0138818
0.0106209
0.00938223
0.00737934
0.00690707
0.00702643
0.00713227
0.00665464
0.00769381
0.00811049
0.00694833
0.00596096
0.00621844
0.00581046
0.00608502
0.00580954
0.00673436
0.0064739
0.00602352
0.00625804
0.00675592
0.00720491
0.0073629
0.00815675
0.00841324
0.0120665
0.0112974
0.00918793
0.00667873
0.00878084
0.00972534
0.0107237
0.0114826
0.010374
0.0107366
0.00956281
0.00894175
0.00889618
0.00812212
0.00669617
0.00658813
0.00669006
0.0061657
0.00859431
0.0106982
0.010218
0.013689
0.0123302
0.010459
0.00880484
0.00810822
0.0101013
0.00350885
0.00553851
0.0126249
0.00808308
0.00755478
0.00587502
0.00560189
0.00581961
0.00561737
0.00662877
0.00516379
0.00571643
0.00647457
0.00603131
0.00787375
0.00827082
0.0102356
0.0108778
0.0124276
0.0193087
0.0277297
0.022562
0.0230795
0.0179968
0.0123164
0.00296945
0.0027196
0.00702696
0.0050472
0.00464114
0.00524785
0.0054326
0.00705479
0.00604634
0.00410492
0.00549138
0.0053222
0.00620861
0.00623063
0.00681781
0.00636257
0.0055938
0.00698119
0.00863027
0.0259834
0.0277692
0.0276151
0.0168736
0.00883998
0.00718078
0.00305175
0.00175858
0.0035513
0.00377287
0.00415793
0.00623946
0.00531982
0.00613724
0.00669989
0.00532313
0.00490964
0.00556154
0.00456927
0.00449623
0.00444975
0.00541805
0.00717419
0.0100168
0.0143055
0.0314168
0.03245
0.0321801
0.0175948
0.0082314
0.00470512
0.00313736
0.00131976
0.00202682
0.00275992
0.0028916
0.00482481
0.00565916
0.0129614
0.00748191
0.00732608
0.00540209
0.00465639
0.00468774
0.00480395
0.0055535
0.00849334
0.0120763
0.0151069
0.0200984
0.0262873
0.0691037
0.0521135
0.0404291
0.0261168
0.00340378
0.00316525
0.00124216
0.00136912
0.00205039
0.00184371
0.00337572
0.00265429
0.0077622
0.00823984
0.00675097
0.00523161
0.00442214
0.00477813
0.00480026
0.00646277
0.010747
0.0168898
0.0240347
0.0293391
0.0481803
0.077028
0.152251
0.0931038
0.0692062
0.0070552
0.00317362
0.00124514
0.00108884
0.00148734
0.00154478
0.00201856
0.00171719
0.00342856
0.00646026
0.00617013
0.00478836
0.00475599
0.00372117
0.00510657
0.00804487
0.0133145
0.0186084
0.0354132
0.0570771
0.0791521
0.133777
0.26666
0.207414
0.275894
0.0323483
0.00317305
0.0012704
0.000941495
0.00106831
0.0012761
0.00124181
0.00103929
0.00115448
0.00524707
0.00525939
0.00437037
0.00396575
0.00473332
0.00536002
0.00829704
0.0130353
0.0211356
0.0447603
0.0616887
0.0837733
0.164389
0.298757
0.260421
0.224888
0.0679022
0.00317172
0.00129058
0.00087124
0.000981306
0.00104383
0.0010458
0.000754016
0.000852331
0.00179401
0.00341061
0.00387377
0.00506981
0.0056926
0.00562669
0.00780066
0.0126031
0.0212833
0.0441211
0.0573689
0.0933266
0.218527
0.310922
0.267668
0.288184
0.0770936
0.0031706
0.00130484
0.00083839
0.000918686
0.000922705
0.000881909
0.000705788
0.000682444
0.000985769
0.00174184
0.00296417
0.00433296
0.00513381
0.00577021
0.00651592
0.00899971
0.0204302
0.0372607
0.0525573
0.0910543
0.241189
0.304943
0.22416
0.0726331
0.0389481
0.00316717
0.00131905
0.000799827
0.000836155
0.000781031
0.000765685
0.000651189
0.000588147
0.000792885
0.00115231
0.00307817
0.00433564
0.00505599
0.00676402
0.00698541
0.00829764
0.0165967
0.0234252
0.0410265
0.0795342
0.208638
0.358042
0.111437
0.000808622
0.00820828
0.00316451
0.00132105
0.000775704
0.000761306
0.000728653
0.000637274
0.000618519
0.000509957
0.000655367
0.000658234
0.00202139
0.00456386
0.00531506
0.00518194
0.00566837
0.00671609
0.00978782
0.0164921
0.0253297
0.0414643
0.131727
0.303652
0.0709602
0.00754894
0.00821771
0.00317056
0.00129944
0.000794121
0.000689079
0.00066727
0.000595909
0.00054399
0.000494949
0.000474364
0.00077878
0.00170861
0.00343151
0.00484809
0.00523617
0.00500909
0.00618943
0.00850751
0.0131934
0.0178723
0.0263082
0.0648619
0.249365
0.179054
0.0160605
0.00992301
0.00316934
0.0013003
0.000790259
0.000644765
0.00064367
0.000608415
0.000514496
0.000441508
0.000425468
0.000789982
0.000992315
0.00279891
0.00449855
0.00516017
0.00540335
0.00595984
0.00788631
0.0102359
0.0148623
0.0227727
0.0475239
0.185979
0.13182
0.00221948
0.00590431
0.00317014
0.00128869
0.000790652
0.000618601
0.000610153
0.00056335
0.000491036
0.000407043
0.000403161
0.000597116
0.000817576
0.0013915
0.00256827
0.00360238
0.00379114
0.00426764
0.00671787
0.00883336
0.0122756
0.0223049
0.0379002
0.269327
0.12242
0.00867734
0.00402848
0.00317063
0.00127732
0.000806952
0.000607197
0.000582969
0.000567171
0.000511436
0.000413094
0.000398015
0.000522295
0.000679087
0.00101281
0.0015841
0.00207392
0.00236841
0.00365671
0.00678518
0.00790257
0.00957856
0.0211631
0.0287162
0.229303
0.156753
0.0143029
0.00393331
0.00317234
0.00126546
0.000811213
0.000604066
0.000565785
0.000538336
0.000521929
0.00042256
0.000450289
0.000447882
0.000558665
0.000767891
0.00133238
0.00167135
0.00198043
0.00284297
0.00485489
0.00710354
0.00891746
0.0151576
0.0175401
0.0823788
0.138267
0.0231563
0.00396239
0.00317124
0.00126463
0.000794769
0.000610872
0.00050839
0.000493106
0.000491344
0.000417637
0.000435478
0.000467436
0.000455413
0.000522108
0.000955965
0.00125785
0.00141432
0.0023987
0.00443486
0.00673223
0.00827716
0.0129436
0.0166969
0.0302829
0.0942332
0.0327001
0.00414618
0.00317104
0.00126258
0.000806269
0.000603772
0.000496707
0.000474689
0.000463128
0.000407002
0.000420723
0.000461937
0.000443048
0.000486943
0.000669141
0.00074832
0.0011063
0.00169997
0.00275005
0.00536536
0.00742662
0.01179
0.0136513
0.018306
0.0297288
0.00890856
0.00417442
0.00317177
0.00125166
0.000788382
0.00060842
0.000487671
0.000447248
0.000442557
0.000399721
0.000397667
0.000432372
0.000421539
0.00045953
0.000490884
0.000506958
0.000650522
0.00123114
0.00193668
0.00328983
0.00592369
0.0116303
0.0192695
0.0108823
0.0108371
0.0164883
0.00432788
0.00316709
0.00125969
0.000796013
0.000598165
0.000491259
0.000429316
0.000410284
0.000374609
0.000386799
0.000392856
0.000388042
0.000412019
0.00044237
0.000441399
0.000491
0.000695908
0.00136596
0.00234971
0.0058969
0.00970452
0.0259177
0.0176468
0.0139945
0.0209462
0.00349753
0.00317329
0.00123098
0.00078599
0.000586033
0.000490803
0.000423438
0.00040669
0.000374492
0.00036239
0.000404139
0.000444117
0.000462632
0.000458437
0.000447833
0.000469455
0.00067413
0.00109471
0.00212241
0.00365233
0.0095706
0.0240485
0.0258629
0.0139162
0.00574221
0.00441067
0.00315793
0.00121065
0.000772331
0.000576447
0.000490539
0.000425967
0.000406681
0.000373174
0.000372484
0.000423985
0.000410562
0.000412692
0.000412087
0.00041631
0.000454048
0.000667002
0.000817855
0.00174916
0.00275448
0.00967386
0.0159214
0.031625
0.019461
0.00670806
0.00631271
0.00316635
0.0011849
0.000778083
0.000615399
0.000519477
0.000463012
0.000493563
0.000486456
0.000521926
0.000575782
0.000561959
0.000556972
0.0005883
0.000641191
0.000701198
0.000879867
0.00117924
0.00179809
0.00350258
0.00597828
0.0101526
0.0186739
0.021545
0.0127418
0.00573858
0.00916637
0.00747913
0.00698609
0.00692787
0.00694443
0.00684969
0.00630981
0.00589028
0.00527318
0.00567384
0.00519868
0.00572594
0.00521972
0.00453998
0.00477726
0.00469077
0.00531815
0.00559217
0.00604223
0.00653576
0.00622187
0.00716719
0.00886813
0.011871
0.00688062
0.0092544
0.00650201
0.00813195
0.0104752
0.0115029
0.0121898
0.0120767
0.0101028
0.0101204
0.0092881
0.00886448
0.00790867
0.00698916
0.00635594
0.00629511
0.00678124
0.0061362
0.00714395
0.00697755
0.0138442
0.0158961
0.0158974
0.0114013
0.00985442
0.0100747
0.00348636
0.00455682
0.0107129
0.00864761
0.00812132
0.00764892
0.00743661
0.00664272
0.00823755
0.00947812
0.00779132
0.00530253
0.00608005
0.00666042
0.0052018
0.00757757
0.00661549
0.0113845
0.0142772
0.0180645
0.0226281
0.0257468
0.0235233
0.014625
0.00601973
0.00302234
0.0023301
0.00538826
0.00587745
0.00511805
0.00576151
0.00634856
0.00587591
0.00547092
0.0056104
0.00660836
0.00454229
0.00366843
0.00367097
0.00432441
0.00426612
0.0051286
0.00837831
0.014288
0.0201649
0.0193246
0.0217578
0.00961061
0.00565414
0.00452136
0.00310026
0.00144777
0.0025622
0.00330444
0.00315262
0.0036889
0.00365762
0.0051905
0.00466214
0.0048106
0.0030796
0.00241444
0.00202878
0.00195745
0.00233041
0.00367228
0.0055645
0.00660509
0.00789074
0.0383177
0.0265129
0.0241312
0.00716145
0.00407711
0.00393953
0.00316301
0.00117291
0.00140096
0.00177691
0.00155648
0.00190068
0.00247907
0.00323669
0.0033816
0.00229189
0.00333863
0.00317779
0.00226308
0.00225106
0.00266675
0.00420587
0.00575245
0.00741265
0.0144072
0.0426494
0.0596042
0.0358668
0.0193342
0.00848528
0.00351317
0.00317499
0.00116548
0.000967109
0.00125001
0.000991029
0.000924669
0.00130159
0.00213728
0.00252164
0.0023053
0.00318572
0.0028813
0.00263836
0.00242795
0.0026346
0.00528136
0.00629909
0.0119094
0.0222842
0.0402002
0.0772342
0.10264
0.0308104
0.0394223
0.00405808
0.00317685
0.00120206
0.000776025
0.000924277
0.000740631
0.000695729
0.000811295
0.00111545
0.00148364
0.00182146
0.00242771
0.00192545
0.00263611
0.00240233
0.00263616
0.00500695
0.00814882
0.0164534
0.0321269
0.057748
0.118833
0.281837
0.167909
0.137753
0.00480228
0.0031752
0.00124128
0.000727306
0.000713424
0.000576847
0.000511786
0.000468432
0.000661005
0.000733257
0.00213453
0.002237
0.00257478
0.00267105
0.0027784
0.00250541
0.00464995
0.00959136
0.0266484
0.0535724
0.112168
0.178287
0.358682
0.240573
0.331297
0.0362148
0.00317234
0.0012725
0.000723815
0.000637213
0.000529484
0.000431735
0.00036233
0.000465214
0.000646359
0.00135393
0.00178895
0.00211286
0.00307174
0.00246738
0.0024577
0.00479959
0.0100328
0.0368133
0.0715745
0.126949
0.250149
0.476769
0.326911
0.305964
0.0689259
0.00316495
0.00131171
0.000727947
0.000585113
0.00046836
0.000406767
0.000316094
0.00033792
0.00047321
0.000580649
0.000841619
0.00213456
0.00235588
0.00222883
0.00266829
0.00282347
0.00726444
0.0328062
0.067192
0.122651
0.25878
0.531304
0.447003
0.175387
0.0486482
0.00317376
0.00128814
0.000773909
0.00055522
0.000458913
0.000380029
0.000309777
0.000299392
0.00037654
0.000507117
0.000821618
0.00119086
0.00217102
0.00263162
0.00216902
0.00287833
0.00570654
0.0260632
0.0519984
0.0778774
0.248099
0.549966
0.232328
0.0670431
0.0783694
0.00316877
0.00129609
0.000782811
0.000566832
0.000449117
0.000363801
0.000295748
0.000276779
0.000306989
0.000359587
0.000574737
0.00099691
0.00164711
0.00247145
0.00220757
0.00252291
0.00419074
0.0114289
0.0228897
0.0499903
0.184937
0.487184
0.16214
0.0490586
0.0333871
0.00316841
0.00128689
0.000788045
0.000562099
0.000448408
0.000362168
0.000302315
0.000281497
0.000281505
0.000294932
0.000504385
0.000659353
0.0014338
0.00182111
0.00161154
0.00201227
0.00312706
0.00939077
0.0167321
0.0367363
0.136908
0.433303
0.163996
0.0456327
0.0340333
0.00316757
0.00129226
0.000770017
0.000541583
0.000438133
0.000341801
0.000284725
0.000264316
0.000266337
0.00030738
0.000342862
0.000696558
0.00117428
0.00142134
0.0013728
0.00197767
0.00249421
0.00519151
0.00906416
0.020337
0.125575
0.358591
0.102488
0.0248131
0.011916
0.00316621
0.00129135
0.000770366
0.000556609
0.000428323
0.000344731
0.000279425
0.000250128
0.000258532
0.000267395
0.000286507
0.000467422
0.000639176
0.000871206
0.00112594
0.00138699
0.00222287
0.00356058
0.00622785
0.0164325
0.0743205
0.412146
0.0595955
0.00694653
0.00542902
0.00316706
0.00128039
0.000789657
0.000563571
0.000430223
0.000347142
0.000276241
0.000242991
0.000235755
0.000251621
0.000256814
0.000424784
0.000569786
0.000739456
0.000928076
0.00122541
0.00187695
0.00285553
0.00461755
0.0141517
0.0405493
0.347201
0.133512
0.00751071
0.00452807
0.00316936
0.00127422
0.000785264
0.000571225
0.000413528
0.00035733
0.000278878
0.000242843
0.000228626
0.000241646
0.000251388
0.000311664
0.000525598
0.000680327
0.000735588
0.00094604
0.0014301
0.00228527
0.00412043
0.0112916
0.0250852
0.188902
0.263724
0.0289072
0.00442462
0.00317117
0.00126662
0.000784969
0.000575783
0.00041064
0.000353327
0.000282581
0.000238269
0.0002184
0.000227845
0.000228466
0.000258283
0.00035051
0.00043677
0.000512033
0.000665715
0.00111727
0.00198512
0.00385752
0.00945867
0.0256205
0.0740331
0.301552
0.0574206
0.00548895
0.00316737
0.00126732
0.000786198
0.000571463
0.000421281
0.000354041
0.000290924
0.00024386
0.000222064
0.000214913
0.000213399
0.000244111
0.000274849
0.000316689
0.000348526
0.00052518
0.0008081
0.00150433
0.00281005
0.00745875
0.0256888
0.0195841
0.235757
0.109843
0.00931493
0.00317334
0.00126248
0.000785036
0.0005752
0.000425395
0.000341032
0.000298887
0.00025199
0.000230121
0.000221391
0.000213751
0.000235734
0.000241204
0.000249138
0.000291326
0.000381429
0.000542755
0.00104758
0.00211329
0.00703612
0.0256581
0.0301649
0.102975
0.0456748
0.00202197
0.00317396
0.00125835
0.000787216
0.000569945
0.000434286
0.000349469
0.000299177
0.000252887
0.000236601
0.00022734
0.000212491
0.000228052
0.000218893
0.000226896
0.000237872
0.000258013
0.000397545
0.000691567
0.00189104
0.0046077
0.0196998
0.022793
0.0534922
0.0361622
0.0157053
0.00317909
0.0012724
0.00079879
0.00057392
0.000442981
0.000352207
0.000300695
0.000254774
0.000242084
0.000236084
0.00023014
0.000235091
0.000230157
0.00022695
0.000237591
0.000260548
0.000373773
0.000686414
0.00137497
0.00293032
0.0129377
0.0336988
0.0300919
0.0375173
0.0181773
0.00319224
0.00123112
0.000777452
0.000566672
0.000444372
0.000358149
0.000302507
0.000265412
0.000236835
0.000230875
0.000228961
0.000227086
0.00022319
0.000233706
0.000240404
0.000291766
0.000383171
0.000651401
0.000990796
0.00307926
0.0081045
0.0283925
0.0338478
0.0139259
0.0137721
0.00317728
0.00120466
0.000777743
0.000579845
0.000477262
0.000408063
0.000349599
0.00032359
0.000318506
0.000326585
0.00034665
0.00036154
0.000357149
0.000408022
0.000456858
0.00059427
0.000759812
0.000963929
0.00163602
0.00315165
0.00520863
0.0134633
0.0276449
0.0185342
0.00582532
0.00925305
0.00767457
0.00710237
0.00692293
0.00693536
0.00674155
0.00628199
0.00576216
0.00540906
0.0050497
0.00518263
0.00537843
0.00558514
0.00496151
0.00515526
0.00533259
0.00546128
0.00522858
0.00578285
0.00572359
0.00607339
0.00728388
0.0097835
0.0130997
0.00585972
0.0095199
0.00626054
0.00780309
0.00890723
0.010004
0.010636
0.0106028
0.00997042
0.0102219
0.00882392
0.00917196
0.0081842
0.00737178
0.00709166
0.00655287
0.00660611
0.00673466
0.00811235
0.00952722
0.0126318
0.0113149
0.0105376
0.00912307
0.0100543
0.0098091
0.00344544
0.00386358
0.00937445
0.0127096
0.00899738
0.00856427
0.00809374
0.00914551
0.00841054
0.0100931
0.0122916
0.0129202
0.011702
0.0166064
0.0258423
0.0191173
0.0147301
0.0161601
0.0161242
0.0210117
0.0245355
0.0195468
0.0166522
0.00885053
0.00499632
0.00305558
0.00203961
0.00372279
0.00857351
0.0058043
0.00557742
0.00609525
0.00664225
0.00705284
0.0073425
0.0161151
0.0124564
0.00703381
0.00742683
0.00650526
0.00568561
0.00507323
0.00983489
0.016215
0.022211
0.0202278
0.0139145
0.00569254
0.00450591
0.00259486
0.00312177
0.00137347
0.00179322
0.00329349
0.00348129
0.0035479
0.00351899
0.0040072
0.00313566
0.00418399
0.00351521
0.00209355
0.00215934
0.00188457
0.00225798
0.00264439
0.00376084
0.00543452
0.0119039
0.0457444
0.0313214
0.0162169
0.0058314
0.00521975
0.00360738
0.00315802
0.00123941
0.00098663
0.0015455
0.00146966
0.00173444
0.00169032
0.00193644
0.00239202
0.00246137
0.00189505
0.00153503
0.00169013
0.00174784
0.00196142
0.00235461
0.00366184
0.00618192
0.0131488
0.0342819
0.0640366
0.0201613
0.0159372
0.0139409
0.00204815
0.0031703
0.00122617
0.000758239
0.000928675
0.000732018
0.000860121
0.000725953
0.000855121
0.0013288
0.00146481
0.00114868
0.00122118
0.0012931
0.00131593
0.00143699
0.00213956
0.00396453
0.00738306
0.0148208
0.0352449
0.129728
0.0575664
0.0426932
0.0352637
0.00390274
0.00317351
0.00124051
0.000717425
0.000670747
0.00047618
0.000475944
0.000393605
0.000470888
0.000618198
0.000833393
0.000804859
0.00086153
0.00117425
0.0012096
0.00110794
0.0017025
0.00418175
0.00787079
0.0165219
0.0549271
0.169189
0.252647
0.1106
0.0843388
0.00463372
0.00317223
0.00126441
0.000712309
0.000583434
0.00042698
0.000353265
0.000287598
0.000319503
0.000375297
0.000545269
0.00065715
0.00111181
0.00127488
0.00128832
0.00113235
0.00182334
0.0038025
0.00884436
0.0241139
0.0852556
0.209063
0.31681
0.274462
0.249255
0.0127813
0.00316981
0.0012866
0.000750234
0.00054003
0.000413204
0.000324716
0.000262847
0.000265723
0.000370347
0.000412552
0.000495843
0.000742216
0.00142549
0.00106046
0.0012126
0.00184177
0.00273132
0.0100508
0.0403384
0.104667
0.253157
0.465655
0.292744
0.352274
0.0225315
0.00317513
0.0012865
0.000770103
0.000522516
0.000401673
0.000302812