/*--------------------------------*- C++ -*----------------------------------*\
  =========                 |
  \\      /  F ield         | OpenFOAM: The Open Source CFD Toolbox
   \\    /   O peration     | Website:  https://openfoam.org
    \\  /    A nd           | Version:  11
     \\/     M anipulation  |
\*---------------------------------------------------------------------------*/
FoamFile
{
    format      ascii;
    class       volScalarField;
    location    "35";
    object      nut;
}
// * * * * * * * * * * * * * * * * * * * * * * * * * * * * * * * * * * * * * //

dimensions      [0 2 -1 0 0 0 0];

internalField   nonuniform List<scalar> 
17196
(
0.0819415
0.029832
0.0293825
0.0363195
0.0500277
0.0636073
0.0742604
0.0646102
0.0656928
0.0644737
0.0554286
0.042674
0.0333271
0.0298501
0.0298379
0.0317279
0.0375965
0.0428731
0.0454211
0.0461094
0.0527873
0.0425636
0.0349789
0.0941287
0.0431292
0.160903
0.0625666
0.05656
0.058044
0.0723494
0.0680053
0.0466428
0.0441891
0.0369328
0.0319397
0.0314663
0.0299366
0.0272113
0.0246471
0.0249397
0.0263793
0.0303085
0.0335723
0.0350901
0.0382268
0.0481619
0.0865477
0.105296
0.110582
0.102161
0.16975
0.0696922
0.097616
0.149691
0.145928
0.145179
0.0826861
0.0679716
0.072089
0.0660676
0.0575826
0.0493833
0.0441445
0.0430012
0.0471924
0.0525448
0.0517889
0.0676527
0.0703925
0.0566031
0.0873247
0.12172
0.208572
0.160679
0.201201
0.155625
0.0786934
0.104225
0.145327
0.127122
0.135865
0.100023
0.073643
0.0661081
0.0677612
0.0626501
0.0567861
0.0509929
0.054152
0.0643902
0.0618072
0.0730207
0.0771651
0.0931614
0.121649
0.154112
0.189596
0.420795
0.200032
0.185942
0.147307
0.0879405
0.0985998
0.131655
0.102231
0.103506
0.091528
0.0707263
0.0609396
0.0660852
0.0652702
0.063224
0.0608713
0.0692511
0.0917945
0.101352
0.121677
0.126874
0.159401
0.202859
0.297277
0.339355
0.567825
0.423453
0.0707207
0.144329
0.0834764
0.0904272
0.109003
0.0830193
0.0753941
0.0674674
0.0587335
0.0550747
0.0545777
0.05756
0.0731941
0.0792156
0.0954797
0.120472
0.157822
0.164041
0.218297
0.237625
0.368831
0.517198
0.595835
0.552001
1.01463
0.0259291
0.14409
0.0861046
0.0957003
0.10618
0.074572
0.0600526
0.0487436
0.0444769
0.0413798
0.0429119
0.0476938
0.0565238
0.0826457
0.102807
0.135807
0.183314
0.203194
0.233569
0.326499
0.501926
0.704517
0.833274
0.669152
0.874941
0.119875
0.146188
0.0780755
0.0805206
0.100946
0.076304
0.0520646
0.0427688
0.0371328
0.0307229
0.0324192
0.0384528
0.0582411
0.0812989
0.10418
0.151722
0.216134
0.269422
0.319679
0.399151
0.652182
0.824523
0.834858
0.521413
0.698035
0.0792236
0.149369
0.0774928
0.0823371
0.0877865
0.079488
0.05598
0.0427201
0.0324702
0.0308247
0.0260262
0.0269741
0.0517587
0.0720708
0.0812739
0.114691
0.192645
0.298321
0.369237
0.477087
0.715368
0.848836
0.734082
0.521614
0.537334
0.0621669
0.153789
0.0825377
0.0822058
0.0830293
0.0797721
0.0609178
0.0438388
0.0335962
0.0240421
0.0239527
0.0165005
0.0260322
0.0410843
0.0650236
0.0845303
0.138092
0.241919
0.364985
0.486303
0.753643
0.99981
0.937067
0.599679
0.192257
0.0752173
0.160508
0.0854919
0.0779863
0.0768165
0.0732687
0.06196
0.0462896
0.0403377
0.0303412
0.0176375
0.0170577
0.0171424
0.0301678
0.0422398
0.0653631
0.090155
0.150274
0.260285
0.392405
0.640109
1.03998
0.887425
0.595643
0.0638836
0.0911327
0.173808
0.0803744
0.0749268
0.0713498
0.0685186
0.0586345
0.0469279
0.040087
0.0324756
0.0238547
0.0146431
0.0214261
0.0264073
0.0371764
0.0534907
0.0758081
0.12426
0.193641
0.255026
0.372122
0.683623
0.786278
0.35858
0.0445718
0.17782
0.172716
0.0851546
0.0766736
0.0689649
0.0649573
0.0565869
0.0472614
0.0406897
0.0355437
0.0296454
0.0244338
0.022159
0.0271457
0.0346111
0.0476984
0.0674895
0.0823371
0.101721
0.138312
0.215481
0.385054
0.353175
0.181063
0.0616148
0.0937187
0.189325
0.0823171
0.0719372
0.0658337
0.0615653
0.0544059
0.0459325
0.0400622
0.0369027
0.0312491
0.0304106
0.0284634
0.0266211
0.033535
0.039
0.048541
0.062745
0.083631
0.113737
0.157919
0.275697
0.35311
0.211354
0.059833
0.0868247
0.18253
0.0902467
0.0695359
0.0638097
0.0598115
0.0524755
0.0446043
0.0392036
0.0370662
0.031467
0.0315183
0.0318005
0.0242102
0.0288485
0.0318269
0.036879
0.0466688
0.0585108
0.0742888
0.0985378
0.184234
0.403564
0.284352
0.116199
0.0957059
0.19932
0.0877614
0.0736359
0.0632282
0.0572557
0.0515879
0.0437719
0.0388263
0.0353024
0.034181
0.0294977
0.0329132
0.0285866
0.027907
0.0285509
0.0306111
0.0383621
0.0448415
0.0503955
0.0723659
0.112804
0.205409
0.134413
0.15205
0.165379
0.198667
0.0956545
0.0679207
0.0606352
0.0552015
0.0494087
0.0427349
0.0378338
0.0354947
0.0337694
0.0303365
0.0298179
0.0298333
0.0258536
0.026083
0.0256168
0.0288253
0.0336085
0.039171
0.0574104
0.0899371
0.15085
0.123075
0.163257
0.540022
0.218426
0.0852116
0.0631716
0.057287
0.0526206
0.0480506
0.0406341
0.0399196
0.038379
0.0355156
0.0302386
0.0347082
0.0317607
0.0244583
0.0212479
0.0208708
0.022063
0.0272865
0.0306708
0.0436336
0.076608
0.132173
0.098335
0.170989
0.411696
0.215533
0.0926317
0.0736389
0.0613212
0.0535154
0.0475012
0.0410945
0.0357946
0.0332393
0.0290263
0.0307554
0.0289815
0.0308414
0.0267638
0.0197352
0.0179562
0.0186992
0.0237195
0.0281494
0.0331836
0.0626599
0.125572
0.0791249
0.114088
0.286333
0.2317
0.0844961
0.0620794
0.0572056
0.052465
0.0468795
0.0407312
0.0356782
0.0316851
0.0298603
0.0309159
0.0322874
0.0294755
0.0288489
0.0245602
0.0234788
0.021961
0.0232135
0.029696
0.03083
0.0522397
0.125978
0.0677372
0.0755963
0.169061
0.237446
0.0822474
0.0683647
0.0560762
0.0512546
0.0467659
0.0412274
0.0358084
0.0320274
0.0303387
0.0286443
0.0294703
0.0287331
0.0253272
0.0213767
0.0190278
0.0211055
0.0232688
0.0273965
0.0279313
0.0389113
0.105583
0.0693394
0.0511692
0.106841
0.244278
0.0786002
0.0568204
0.0494065
0.0485828
0.045686
0.0406657
0.0356142
0.0321462
0.0311738
0.0291504
0.0270715
0.0235572
0.0226578
0.0208993
0.0193217
0.0219634
0.0228466
0.0221174
0.0289648
0.0244226
0.0649063
0.0569964
0.0357653
0.0377707
0.227978
0.0853816
0.0564952
0.0464797
0.0471192
0.0454011
0.0412341
0.0368217
0.0333694
0.0321838
0.0292103
0.0262375
0.0239157
0.02173
0.0193519
0.0184256
0.0180747
0.0191229
0.0191108
0.0292786
0.0290762
0.0279437
0.0384816
0.038109
0.0254001
0.219511
0.0862472
0.0517615
0.052384
0.0476409
0.0459538
0.0433878
0.0387393
0.0369905
0.0331
0.0285305
0.0269903
0.0257932
0.0221044
0.0206456
0.0202228
0.0201181
0.0185641
0.0176172
0.0236153
0.0277426
0.0294276
0.0274154
0.0440102
0.0235538
0.100377
0.0470375
0.0327038
0.0267225
0.0232324
0.0208954
0.018633
0.0166465
0.0151275
0.0132142
0.0140174
0.0121329
0.0138849
0.0138382
0.0110796
0.0117551
0.0107843
0.00940456
0.0107447
0.0165068
0.017836
0.0235058
0.0380201
0.0387352
0.0397146
0.0902872
0.0419272
0.0470602
0.0421262
0.0421615
0.0386291
0.0342575
0.0290313
0.0260346
0.0221246
0.0194496
0.0164866
0.0160368
0.0184504
0.020467
0.0218
0.0236895
0.0295165
0.0327257
0.0230778
0.0393882
0.0503024
0.0418541
0.047031
0.049614
0.0101111
0.0467003
0.239645
0.132728
0.141109
0.154928
0.117574
0.0858141
0.0852135
0.0823488
0.0829841
0.0698015
0.0646621
0.0549919
0.0514298
0.0455252
0.0594001
0.114014
0.122646
0.145018
0.158555
0.316833
0.119208
0.207164
0.29827
0.00869852
0.018473
0.20361
0.291519
0.340243
0.341616
0.197536
0.200656
0.202976
0.141046
0.177275
0.138432
0.148214
0.147457
0.118368
0.19042
0.108311
0.259293
0.295558
0.366212
0.527598
0.592947
0.358513
0.138439
0.0087253
0.00888945
0.013521
0.102689
0.256119
0.323274
0.479672
0.449023
0.365994
0.245644
0.263057
0.209429
0.230641
0.119364
0.171845
0.139002
0.141476
0.157231
0.209451
0.365557
0.537081
0.615598
0.763509
0.35839
0.382991
0.015071
0.00890785
0.0132251
0.0619167
0.165566
0.302159
0.443377
0.529166
0.366414
0.373495
0.287954
0.260734
0.184576
0.167805
0.250836
0.241572
0.280701
0.225651
0.2653
0.480687
0.597862
0.880777
0.854897
0.823239
0.569176
0.000555137
0.00893562
0.0126872
0.0471392
0.119341
0.236461
0.250661
0.409056
0.327417
0.317943
0.24469
0.32663
0.315255
0.220869
0.242913
0.368293
0.383571
0.394276
0.44136
0.616513
0.870888
1.07761
1.09747
1.2165
1.43302
0.192468
0.00887291
0.0132271
0.041886
0.0841154
0.158079
0.235979
0.333459
0.396022
0.454942
0.294177
0.245419
0.350883
0.317339
0.326835
0.488985
0.495395
0.437836
0.50031
0.703831
1.02189
1.27917
1.41527
1.75661
1.82829
0.757088
0.0089678
0.0117445
0.0341802
0.0918574
0.133867
0.201511
0.258183
0.339048
0.40673
0.243047
0.190408
0.246574
0.278849
0.257474
0.388309
0.592027
0.435185
0.634654
0.799408
1.2135
1.46256
1.80398
0.921381
1.298
1.00408
0.00897573
0.0115473
0.028739
0.0662316
0.102179
0.151885
0.195219
0.228415
0.188555
0.160588
0.12336
0.149854
0.198943
0.199457
0.271874
0.439745
0.572648
0.8911
0.988836
1.49085
1.78402
1.86781
1.11651
0.81024
0.797712
0.00902517
0.0108592
0.0251315
0.0649417
0.0881646
0.132345
0.13144
0.122228
0.176603
0.121764
0.0754883
0.0836028
0.114003
0.18172
0.264944
0.479672
0.573884
0.766061
1.00729
1.43547
2.08608
1.60176
0.329949
0.0893794
0.0136298
0.00899901
0.011303
0.0172504
0.0497319
0.0778744
0.115653
0.111736
0.10889
0.150542
0.135555
0.0529799
0.0818637
0.0852097
0.157275
0.24223
0.408906
0.479753
0.596288
0.836497
1.28334
2.19273
1.49683
0.31963
0.0281092
0.0115807
0.0090466
0.0104658
0.0149676
0.0486449
0.0658271
0.0929317
0.0876136
0.0843078
0.096815
0.131947
0.0904346
0.0781817
0.0862162
0.111934
0.19073
0.379723
0.469634
0.478995
0.689432
1.13889
2.24414
2.07034
0.388473
0.00942053
0.00994767
0.00921786
0.00873958
0.0154537
0.0416722
0.0583789
0.0896888
0.0900974
0.0762429
0.0805289
0.140228
0.0950332
0.14691
0.0652548
0.0881957
0.121531
0.198794
0.32322
0.392642
0.58536
0.804554
1.35251
1.15165
0.370043
0.0137217
0.00960929
0.00921436
0.00878885
0.0159555
0.0329961
0.0518156
0.0812171
0.0894167
0.0759717
0.0740102
0.128874
0.10668
0.11792
0.0602266
0.0737282
0.0997106
0.117722
0.189248
0.325244
0.485675
0.705754
1.28975
1.2565
0.371915
0.0118984
0.011342
0.00926632
0.00829436
0.0167068
0.028758
0.0491271
0.0729486
0.0813589
0.0871723
0.0773511
0.111552
0.15134
0.0682298
0.151106
0.0663095
0.0819906
0.0850821
0.120687
0.191253
0.342767
0.407382
0.673102
1.26907
0.711229
0.00886342
0.012524
0.00932563
0.00768267
0.015781
0.0260664
0.0423738
0.0595595
0.0714799
0.0842443
0.0777641
0.104874
0.144937
0.105505
0.096426
0.0997385
0.0907629
0.0804959
0.0853649
0.113068
0.177056
0.263883
0.356184
0.796047
0.58483
0.163037
0.0157649
0.00924871
0.00884936
0.0128994
0.0237177
0.0390685
0.0592593
0.0704874
0.0831275
0.0807211
0.0962694
0.142606
0.110032
0.117624
0.177214
0.144153
0.0980788
0.101195
0.0949586
0.121323
0.207419
0.367189
0.404547
0.387867
0.232684
0.0201229
0.00923058
0.00913608
0.0115072
0.0217556
0.0380461
0.0513926
0.0628212
0.0700052
0.0777725
0.100812
0.120672
0.109166
0.140107
0.185606
0.199168
0.127825
0.129265
0.094651
0.0946395
0.194748
0.284757
0.227768
0.26867
0.204711
0.0234355
0.00923632
0.00919456
0.00978716
0.0192358
0.0290485
0.0375062
0.0524775
0.0574891
0.0713437
0.0924427
0.111855
0.115141
0.147321
0.147515
0.196128
0.148725
0.111334
0.103299
0.0989377
0.207652
0.256701
0.195371
0.12777
0.0975438
0.0323691
0.00924659
0.00912949
0.00960749
0.0170204
0.0284621
0.0372746
0.0466453
0.0532472
0.0671724
0.0876384
0.108809
0.127973
0.143696
0.140085
0.145934
0.135825
0.0888858
0.111672
0.0978767
0.149269
0.228993
0.184875
0.0804333
0.117336
0.0244426
0.00927035
0.00899946
0.00940113
0.0161295
0.0262675
0.0373361
0.04957
0.0624993
0.0672058
0.0794428
0.100929
0.122638
0.135473
0.15056
0.113135
0.106251
0.104855
0.0669498
0.14107
0.172919
0.246627
0.242674
0.0797901
0.0459546
0.0186961
0.00930038
0.00878056
0.00908398
0.0163581
0.0214428
0.0363099
0.0434626
0.0513797
0.068027
0.0878923
0.10782
0.123929
0.136414
0.144674
0.143759
0.110931
0.0899136
0.101171
0.0632298
0.225129
0.251907
0.213406
0.153191
0.0411494
0.00880218
0.00929258
0.00880026
0.00856695
0.0142256
0.0238652
0.0305682
0.0414634
0.0572681
0.071217
0.0902279
0.10114
0.116023
0.128493
0.13123
0.133909
0.0964074
0.0873504
0.107174
0.0627033
0.254338
0.314027
0.167393
0.14862
0.0815526
0.019201
0.00931159
0.0086118
0.00826316
0.0107264
0.0148556
0.0201286
0.0363819
0.0621619
0.0906515
0.0879701
0.100892
0.093921
0.0728893
0.0604903
0.0624303
0.0621418
0.0548821
0.0510405
0.0420957
0.0379363
0.0568043
0.124219
0.122325
0.0602648
0.0267325
0.113768
0.046191
0.0316856
0.0255763
0.0223125
0.0188296
0.0201471
0.0197177
0.0156339
0.0124583
0.0121877
0.0106976
0.0104794
0.00933975
0.0101918
0.00955611
0.00918893
0.00997071
0.0109169
0.0139745
0.0204921
0.0339236
0.0206494
0.023433
0.0358455
0.0946156
0.0494261
0.0559707
0.0422948
0.037991
0.0335612
0.0277273
0.026289
0.0214297
0.0187674
0.0181461
0.0173072
0.0163551
0.0188531
0.0201423
0.0184996
0.0258444
0.0304364
0.0258132
0.0303001
0.0252368
0.0232367
0.0236821
0.0263822
0.0347513
0.0111985
0.0623905
0.205709
0.189312
0.200671
0.158787
0.145269
0.162682
0.15089
0.121929
0.0672944
0.0607111
0.0633604
0.0463912
0.0548767
0.0580499
0.0636001
0.0690752
0.0768404
0.143355
0.291091
0.361495
0.192223
0.218971
0.177886
0.00880309
0.0232339
0.111064
0.112913
0.118115
0.160321
0.154373
0.184581
0.147907
0.0824048
0.0791103
0.0942931
0.100371
0.0852552
0.0941376
0.151973
0.140458
0.0840096
0.132472
0.558976
0.461405
0.417044
0.16541
0.0659799
0.036511
0.00900228
0.0136744
0.0537176
0.0866653
0.0960977
0.144715
0.168865
0.207168
0.263338
0.19721
0.182892
0.221813
0.1283
0.146808
0.134061
0.136424
0.181789
0.338014
0.365414
0.670708
0.523294
0.420933
0.154756
0.0466082
0.0141729
0.00923271
0.00973148
0.0304072
0.0600647
0.069322
0.106749
0.11986
0.22433
0.233411
0.252787
0.201742
0.188212
0.188595
0.192673
0.22399
0.279292
0.416603
0.500555
0.526817
0.65234
1.17649
0.524254
0.400987
0.132738
0.00910864
0.00928888
0.00888562
0.0198538
0.0439051
0.0485348
0.0904321
0.0655987
0.185176
0.258381
0.241975
0.208215
0.186197
0.202004
0.217611
0.237685
0.356207
0.507759
0.703859
0.699332
1.03369
1.35092
1.93479
1.18735
0.380703
0.0184779
0.00930046
0.00868707
0.0154875
0.0318994
0.0461854
0.0679304
0.0588793
0.0965211
0.193532
0.204154
0.216331
0.224254
0.172008
0.217641
0.269805
0.424496
0.614556
0.972658
1.28515
1.70275
1.95276
2.58866
2.52907
2.13282
0.111591
0.00928686
0.00873523
0.0123161
0.0243219
0.0384507
0.0450368
0.0392973
0.0412513
0.179938
0.217234
0.204458
0.187332
0.209579
0.219742
0.28787
0.432853
0.661026
1.10186
1.50899
1.79471
2.32392
2.97207
1.89371
1.79884
0.367366
0.00927623
0.00882852
0.0108129
0.0214382
0.0317974
0.0385173
0.0292919
0.0349835
0.0678156
0.133436
0.179482
0.216057
0.248052
0.238457
0.289509
0.406391
0.636527
1.00447
1.32837
2.10464
2.97613
2.82713
1.75147
1.60023
0.717033
0.00928222
0.00870658
0.0101706
0.0192011
0.0274612
0.032909
0.0292659
0.0308025
0.0429085
0.0758292
0.122008
0.172798
0.209212
0.246695
0.259503
0.311018
0.674007
0.944416
1.09289
1.58354
3.57767
2.45371
1.34448
0.358859
0.159119
0.00926853
0.00888292
0.00874329
0.0161368
0.0206481
0.026169
0.0255892
0.0250286
0.0362017
0.0505888
0.121396
0.17915
0.216444
0.319076
0.290191
0.318928
0.597667
0.75048
0.926394
1.62501
3.20172
3.0747
0.7013
0.00385481
0.0297401
0.00926563
0.00882124
0.0083473
0.0133869
0.018552
0.0212761
0.0245255
0.0222147
0.0309532
0.0324275
0.0901135
0.18474
0.245765
0.248135
0.259345
0.274805
0.372027
0.581083
0.659646
0.843651
2.80469
2.66468
0.396246
0.0446385
0.0204309
0.00930642
0.00845612
0.00884139
0.0123506
0.0172027
0.0201932
0.022734
0.0223068
0.0227398
0.0390654
0.0846507
0.153378
0.225048
0.260813
0.234134
0.278808
0.355611
0.49214
0.580865
0.722931
1.63501
2.69456
1.26529
0.0970172
0.024741
0.0093132
0.00845039
0.00832091
0.0101112
0.0161149
0.0208875
0.0215248
0.020452
0.0206179
0.0416983
0.0507301
0.13178
0.223012
0.254022
0.27406
0.289136
0.351586
0.386754
0.503328
0.611987
1.21869
2.24184
1.08748
0.0132776
0.0206098
0.00932157
0.0083779
0.00832574
0.00956773
0.0142461
0.0184687
0.0201872
0.0185402
0.0199909
0.0322953
0.0436036
0.0757028
0.127361
0.179554
0.19836
0.226476
0.319463
0.346056
0.411637
0.640269
0.929698
3.86505
1.34374
0.069863
0.0136858
0.00932535
0.00832254
0.008471
0.00969024
0.0132494
0.0175196
0.0198769
0.0184973
0.0199463
0.0282141
0.039102
0.0585226
0.0949023
0.119887
0.138815
0.214713
0.331126
0.323125
0.388861
0.59194
0.707314
3.01128
1.54684
0.11748
0.012548
0.00933996
0.0082217
0.00875746
0.0097346
0.0121338
0.0155903
0.0195177
0.0186308
0.0224371
0.0241652
0.0323392
0.045681
0.0795137
0.0992399
0.119314
0.174302
0.25723
0.296349
0.350782
0.437166
0.364005
1.46942
1.7878
0.216736
0.0158281
0.00933795
0.00825744
0.00852616
0.00964305
0.0111624
0.0132311
0.0174914
0.0175785
0.0212424
0.0248558
0.0262755
0.0304853
0.0602869
0.081227
0.0952466
0.155745
0.259601
0.294802
0.273969
0.390415
0.321402
0.506913
1.34552
0.369894
0.0202076
0.00933157
0.00833445
0.0087811
0.00913629
0.0104651
0.0131717
0.0155634
0.0163046
0.0198244
0.0240715
0.0251853
0.0285175
0.0422342
0.0489103
0.0743782
0.111697
0.173988
0.246552
0.282419
0.350611
0.252021
0.251732
0.436842
0.0808831
0.0104302
0.00934587
0.00822378
0.00846075
0.00928755
0.0101925
0.0122086
0.0149107
0.0157201
0.0182452
0.0220315
0.0236664
0.0266019
0.0309418
0.0332098
0.0439754
0.0843405
0.126017
0.186646
0.262052
0.365785
0.339619
0.168982
0.150328
0.143552
0.0157693
0.00932845
0.00840347
0.00812831
0.00912144
0.00982031
0.0114251
0.0136308
0.0146085
0.0174186
0.0197231
0.0214814
0.0236949
0.0275416
0.0303963
0.0337344
0.0482705
0.0933956
0.151335
0.233289
0.304762
0.431806
0.205851
0.201955
0.192311
0.0253249
0.00934378
0.00825417
0.00816473
0.00873745
0.00993376
0.0108626
0.0129715
0.0142814
0.0160232
0.0199283
0.0241324
0.0264572
0.0284086
0.030538
0.0321336
0.0450152
0.0708552
0.133289
0.0840573
0.206601
0.43893
0.27653
0.119636
0.0332858
0.0192903
0.00932664
0.00820077
0.00797971
0.00837945
0.00971221
0.0107573
0.0127318
0.0139561
0.0160186
0.0201702
0.0214647
0.0231464
0.0246252
0.0275189
0.029872
0.044395
0.0423477
0.056072
0.0449456
0.110045
0.170942
0.304768
0.114196
0.0239417
0.00950009
0.00935412
0.00813583
0.00812505
0.00888316
0.00991468
0.011363
0.0148862
0.0172774
0.0212068
0.0256847
0.0279427
0.0298347
0.034152
0.0393855
0.034829
0.0293371
0.0221275
0.0256062
0.0321072
0.0431161
0.0348017
0.0634746
0.150305
0.0635283
0.0160082
0.108768
0.0447904
0.0319321
0.0253293
0.0217911
0.0191548
0.016162
0.0139489
0.0115961
0.0116203
0.00997806
0.0102587
0.00867441
0.00702616
0.00690589
0.00659369
0.0074968
0.00789717
0.00829289
0.00887739
0.00875948
0.0135441
0.0253937
0.0387555
0.0438328
0.0992614
0.0495024
0.0522175
0.0468818
0.0425403
0.0360663
0.0322881
0.0252266
0.0235851
0.0206969
0.0197528
0.0190702
0.0203145
0.0217118
0.0213482
0.0215424
0.0181975
0.0194447
0.0169409
0.0281545
0.0252138
0.0237123
0.0175675
0.019297
0.0332676
0.0111025
0.0525583
0.192426
0.146739
0.19725
0.168464
0.153207
0.127344
0.146587
0.137552
0.110484
0.0551819
0.0688404
0.082514
0.0656347
0.0830211
0.08159
0.129029
0.165746
0.207741
0.330064
0.304033
0.296897
0.0939355
0.0345765
0.00897672
0.0197087
0.0847212
0.129366
0.120711
0.138716
0.154933
0.143653
0.128602
0.127393
0.131148
0.104839
0.0502795
0.0605935
0.0963508
0.117387
0.123261
0.0947479
0.115268
0.35386
0.273964
0.264511
0.0703741
0.0281083
0.0239148
0.0091672
0.0111077
0.0387406
0.0647993
0.0718019
0.0787027
0.0932055
0.137647
0.12135
0.176776
0.101305
0.083987
0.0745847
0.0818278
0.0833135
0.130369
0.19111
0.225423
0.106983
0.622719
0.334493
0.293627
0.053707
0.0218319
0.0172666
0.00932895
0.00860208
0.0203841
0.038087
0.0406157
0.0442118
0.0582284
0.082932
0.0880069
0.0767551
0.122632
0.127079
0.101972
0.0939353
0.102533
0.159961
0.209371
0.268044
0.440487
0.669885
0.874398
0.349222
0.152253
0.0699162
0.0157133
0.0093424
0.00829676
0.013528
0.0255631
0.0295054
0.0263226
0.0382114
0.0629921
0.0652959
0.0697344
0.106815
0.111694
0.106225
0.10175
0.100991
0.195851
0.238208
0.4009
0.681175
1.1285
1.4347
0.966835
0.340711
0.272312
0.016927
0.00932976
0.00841136
0.0103732
0.0195377
0.0218163
0.0237947
0.0297635
0.0390554
0.0461719
0.0587801
0.0945334
0.0746794
0.114495
0.10683
0.116601
0.191656
0.290263
0.519894
0.938969
1.49946
2.28127
2.92312
1.51137
0.865229
0.0178239
0.00931669
0.00849179
0.00929885
0.0147211
0.0163073
0.018604
0.0190128
0.0270873
0.0269858
0.0760975
0.0929751
0.104355
0.11867
0.118427
0.111635
0.168234
0.327558
0.847536
1.48889
2.47021
2.87669
3.58079
2.3226
1.70663
0.110068
0.00929854
0.00865905
0.008886
0.0129228
0.0148739
0.0153731
0.0148713
0.0209313
0.0285804
0.0493853
0.0670931
0.0757898
0.122021
0.104662
0.110355
0.186079
0.342185
1.14353
1.85524
2.69103
3.66469
4.30035
2.4319
1.50474
0.219511
0.00927082
0.00890709
0.00883015
0.0105927
0.0131177
0.0148318
0.0129563
0.0152355
0.0220272
0.0265703
0.0356732
0.0882067
0.106793
0.099973
0.128657
0.118875
0.274208
1.0654
1.78251
2.5917
3.90085
3.6108
1.91292
0.552466
0.142202
0.00932463
0.00835818
0.00916297
0.00974531
0.012202
0.0131296
0.0124561
0.0137947
0.0186739
0.0250688
0.0392974
0.0521515
0.102777
0.134544
0.110037
0.130963
0.235289
0.921366
1.5985
1.85018
3.72981
3.26383
0.957252
0.21242
0.196322
0.00929808
0.0086176
0.00882428
0.0101282
0.0116071
0.0125517
0.0117705
0.0126022
0.0156081
0.0181766
0.0289876
0.0471575
0.0827185
0.12847
0.117677
0.117173
0.182527
0.48269
0.900611
1.53292
3.4554
3.05186
0.676348
0.15646
0.0934501
0.00929862
0.00857076
0.00888772
0.00979686
0.0111917
0.0121647
0.0121257
0.0127911
0.0141219
0.015115
0.0250673
0.0322565
0.0742082
0.0921398
0.0865589
0.102297
0.143267
0.432591
0.649346
1.05387
2.67376
2.46291
0.720112
0.141474
0.0719018
0.00930944
0.00849542
0.00802822
0.00920688
0.010823
0.010408
0.0111105
0.0120828
0.0135293
0.0159199
0.0176612
0.0350952
0.06361
0.0733796
0.0744274
0.107972
0.125571
0.259978
0.441161
0.748548
2.24543
2.29241
0.495944
0.0934128
0.0278956
0.00930743
0.00853988
0.00844388
0.00876271
0.0100464
0.0104277
0.0104617
0.011359
0.0130037
0.0144648
0.0161536
0.0267633
0.0365302
0.0530327
0.0661364
0.0820526
0.119501
0.186428
0.320733
0.650711
1.52559
3.25428
0.302672
0.0282802
0.0114443
0.00931736
0.00840617
0.00847025
0.00879151
0.00945509
0.0105072
0.0097343
0.0106572
0.0115808
0.0135856
0.014759
0.0246193
0.0351552
0.0439826
0.0577276
0.0758375
0.108153
0.155744
0.245817
0.513064
1.06034
4.17264
0.805053
0.0353639
0.00960763
0.00932424
0.00841807
0.00826727
0.00914619
0.00895603
0.0103227
0.00976106
0.0104111
0.0109523
0.0126908
0.014464
0.0180667
0.0324954
0.0436609
0.0486653
0.0604985
0.091242
0.135998
0.220178
0.465723
0.72159
3.27889
1.9225
0.156643
0.0101972
0.00932979
0.00834644
0.00831815
0.00881987
0.00866252
0.00992353
0.00989217
0.00978155
0.0102126
0.0117349
0.0130332
0.0149736
0.0220187
0.0273189
0.0313578
0.0419961
0.0705909
0.122454
0.210109
0.308807
0.682951
1.33147
2.72813
0.278704
0.0103914
0.00931382
0.00850615
0.00843355
0.00869906
0.00862758
0.00944753
0.00988104
0.00978803
0.0102773
0.010957
0.0120952
0.0140974
0.0169352
0.0215062
0.0231748
0.0342864
0.0521638
0.0901947
0.151305
0.236739
0.608609
0.322632
2.26381
0.73139
0.0355311
0.00934032
0.00836559
0.00831196
0.00873797
0.00859127
0.00881931
0.00993193
0.00996557
0.0104547
0.0111654
0.0119214
0.0135269
0.0149347
0.0156411
0.0194043
0.0246832
0.0346804
0.0663041
0.129897
0.176223
0.591588
0.377272
1.10201
0.313523
0.00519775
0.00933146
0.0084503
0.00846797
0.00861561
0.00872024
0.0092386
0.00977466
0.00985682
0.0106153
0.0113556
0.0116718
0.0130548
0.0134481
0.0151501
0.0172387
0.0184854
0.0289325
0.0478065
0.119059
0.10188
0.433121
0.26901
0.398352
0.17789
0.0513948
0.00935278
0.00841124
0.00830149
0.00832828
0.00860507
0.00896586
0.00956683
0.00970047
0.0106689
0.0114905
0.0123185
0.0132449
0.0140692
0.0150396
0.0172215
0.0188377
0.0262695
0.0472366
0.0767303
0.0601641
0.107033
0.37099
0.247358
0.275713
0.110947
0.00937183
0.00826422
0.00813768
0.00824785
0.00881594
0.00909093
0.00951962
0.00993613
0.0101931
0.0109512
0.0119626
0.0126111
0.0134673
0.0149922
0.0170278
0.0211167
0.0272603
0.0430669
0.0321675
0.0653245
0.094148
0.318785
0.218986
0.0802993
0.0550509
0.00937021
0.0082227
0.00826616
0.00837235
0.0092974
0.0100621
0.0105858
0.0116392
0.0131551
0.0150295
0.0175154
0.0196477
0.0208079
0.0213644
0.0193786
0.0170579
0.0150641
0.0141393
0.0174776
0.0246579
0.0254211
0.058845
0.103071
0.0785751
0.0106971
0.106251
0.0434722
0.0319846
0.0250696
0.0213846
0.0184396
0.015597
0.013173
0.0114781
0.00999509
0.00959933
0.00926523
0.00892037
0.0073244
0.00703724
0.00702652
0.00705892
0.00667456
0.00715839
0.00680746
0.00713769
0.0104728
0.0192544
0.0325156
0.0427522
0.10491
0.0502565
0.0618377
0.0556882
0.0528298
0.0413406
0.0354578
0.0305898
0.0289593
0.0234955
0.0240946
0.0228681
0.0242338
0.0261946
0.0216036
0.0188237
0.0167645
0.0167584
0.0166578
0.0220126
0.0202552
0.0179291
0.0147581
0.020152
0.0640714
0.0108381
0.0433096
0.177212
0.182984
0.167837
0.172659
0.162628
0.171075
0.147201
0.167748
0.125053
0.142318
0.11478
0.132368
0.167701
0.163595
0.158701
0.147515
0.218806
0.262509
0.217629
0.213902
0.12505
0.0353566
0.0342098
0.00905279
0.0165502
0.0584899
0.177512
0.111412
0.127421
0.147342
0.15116
0.159403
0.128757
0.197323
0.186839
0.0701471
0.112664
0.115279
0.139385
0.0728013
0.19535
0.25033
0.320442
0.287742
0.114424
0.0301138
0.0337731
0.0184635
0.00922503
0.0102302
0.026237
0.0709275
0.0758905
0.0826102
0.0792245
0.0911968
0.065793
0.115056
0.0828803
0.0521452
0.060669
0.0680043
0.0846905
0.0919321
0.064993
0.117387
0.1938
0.570326
0.381717
0.163096
0.0389111
0.0330186
0.0129993
0.00931556
0.00891804
0.0134202
0.0348844
0.0362217
0.0517933
0.0416406
0.0457191
0.0614315
0.0677131
0.0540646
0.0450578
0.0644006
0.0663839
0.0723713
0.0862949
0.128628
0.178781
0.424629
0.703245
0.809164
0.170627
0.101658
0.0873724
0.00608316
0.00933413
0.0086123
0.0101267
0.0206634
0.0192348
0.0279533
0.0233584
0.0254955
0.0428708
0.0420747
0.0372431
0.0447656
0.0469417
0.0516916
0.0582034
0.0887115
0.160295
0.269149
0.501736
0.672757
1.6812
0.466292
0.2866
0.171714
0.00845114
0.0093257
0.00863062
0.00875066
0.0141986
0.0130113
0.0163427
0.0154096
0.0182868
0.0248434
0.0266199
0.0282135
0.0358578
0.0556068
0.059123
0.0552817
0.0743059
0.173044
0.29615
0.555033
1.25931
2.57064
2.35938
0.752152
0.400799
0.0121537
0.00931013
0.00868952
0.00875488
0.0119192
0.0121757
0.0124328
0.0117279
0.0137474
0.0168862
0.0219798
0.0272669
0.0480444
0.061929
0.0619815
0.0574629
0.0887003
0.162868
0.333055
0.821531
1.7437
3.0008
2.94949
1.73505
1.08551
0.0406977
0.00929193
0.00883737
0.00917164
0.00984832
0.0115232
0.0113705
0.011002
0.0122828
0.0176847
0.0202142
0.0210102
0.0329324
0.0692107
0.0512498
0.0626543
0.093387
0.122209
0.399557
1.27138
2.01022
3.04269
3.89009
2.45208
1.2422
0.0467883
0.00932993
0.00842661
0.00920285
0.00930858
0.00994904
0.0101904
0.0105891
0.0112066
0.0143872
0.0156004
0.0165821
0.0343515
0.0567122
0.0661843
0.0641508
0.0659322
0.0583891
0.42148
1.57015
2.44893
4.99975
3.10524
2.18945
0.540073
0.0646682
0.00930247
0.00868937
0.00860107
0.00867909
0.00966058
0.00955217
0.0100819
0.0104792
0.01293
0.0153461
0.0178309
0.0250188
0.0320792
0.0494089
0.0523624
0.0501243
0.0743634
0.354071
1.2318
2.44993
5.74133
2.46105
0.958958
0.526044
0.0498862
0.00931241
0.00854621
0.00849281
0.0090427
0.00934683
0.00966624
0.00979742
0.0103734
0.0112372
0.0131842
0.0149412
0.0190239
0.021214
0.0426744
0.0442849
0.0522747
0.0619526
0.196132
0.693521
1.47133
5.67239
2.68114
0.653291
0.346637
0.0895314
0.00932545
0.00846736
0.00823654
0.00937501
0.00997875
0.010187
0.00985178
0.0101778
0.0105141
0.0117907
0.0127451
0.0166444
0.0183573
0.0304894
0.0357724
0.0402818
0.0544982
0.179517
0.569081
1.12013
6.09111
2.59562
1.2294
0.33986
0.129182
0.00933629
0.0083573
0.0084147
0.0094069
0.0100166
0.0101635
0.00953034
0.00970793
0.00985994
0.0105786
0.0112468
0.0148154
0.0174732
0.0294062
0.0294413
0.0442183
0.0527634
0.118319
0.307382
0.852598
2.72358
2.93752
1.14542
0.250956
0.0581524
0.00932924
0.00842748
0.00794522
0.00917937
0.00884682
0.00911367
0.00902749
0.00965109
0.0102517
0.0106806
0.0110484
0.013747
0.0164909
0.0210208
0.0252964
0.0325131
0.0437894
0.0870578
0.232716
0.542192
2.00783
3.63936
1.52774
0.173889
0.0397803
0.00931604
0.0085267
0.00841775
0.00931421
0.00916629
0.00946045
0.00873103
0.00892272
0.00937819
0.00983527
0.0106368
0.013264
0.0158694
0.0195173
0.0232773
0.0303706
0.0381545
0.0744031
0.193401
0.455383
1.38502
3.29251
1.03988
0.199514
0.0767259
0.00933473
0.00841159
0.00818125
0.00865664
0.00870775
0.00915353
0.00897153
0.00892422
0.00924991
0.00986685
0.0106607
0.0118536
0.0147185
0.0172636
0.0186317
0.0217875
0.0338268
0.0642136
0.155281
0.315269
0.683165
4.29833
1.62943
0.607901
0.0453849
0.00933459
0.00840416
0.00822017
0.00840492
0.00858124
0.00895641
0.00913627
0.0088081
0.00877749
0.00946016
0.0101737
0.0110182
0.0130376
0.0138636
0.0142991
0.0163108
0.0255132
0.0524684
0.148838
0.280217
0.541127
5.01578
2.20154
0.443819
0.0280247
0.00935765
0.00829111
0.0085051
0.0084836
0.00850675
0.00901944
0.00905933
0.00899594
0.00864477
0.00885852
0.00993602
0.0104435
0.0119414
0.0136586
0.0133177
0.0157707
0.0224957
0.0462184
0.124011
0.145203
0.450048
2.50406
1.83315
0.588341
0.0252798
0.00933004
0.00846081
0.00830254
0.00842739
0.00880733
0.00877829
0.00900792
0.00933799
0.00883884
0.00884085
0.00921474
0.00948343
0.0107401
0.0121318
0.01306
0.0140188
0.017666
0.0379184
0.0758277
0.124262
0.377812
0.706459
1.20208
0.945229
0.0529283
0.00932037
0.00858949
0.00839752
0.00864762
0.00864984
0.00888592
0.0087855
0.00895308
0.00901746
0.00899456
0.00920685
0.00941451
0.00949452
0.0109656
0.011991
0.0131279
0.0160762
0.0276061
0.0513952
0.0906647
0.224254
0.62738
0.395656
0.33684
0.0577877
0.00934847
0.00832439
0.00817196
0.0083245
0.00850362
0.00874237
0.0088027
0.0090094
0.00897137
0.00924267
0.00912712
0.00960937
0.00948964
0.0110349
0.0127005
0.0135003
0.0157059
0.0263556
0.0274234
0.0696908
0.0845414
0.497232
0.338102
0.140221
0.0422802
0.0093351
0.00821275
0.00819189
0.00837869
0.00841864
0.00891228
0.00898176
0.00909706