/*--------------------------------*- C++ -*----------------------------------*\
  =========                 |
  \\      /  F ield         | OpenFOAM: The Open Source CFD Toolbox
   \\    /   O peration     | Website:  https://openfoam.org
    \\  /    A nd           | Version:  11
     \\/     M anipulation  |
\*---------------------------------------------------------------------------*/
FoamFile
{
    format      ascii;
    class       volScalarField;
    location    "35";
    object      omega;
}
// * * * * * * * * * * * * * * * * * * * * * * * * * * * * * * * * * * * * * //

dimensions      [0 0 -1 0 0 0 0];

internalField   nonuniform List<scalar> 
17196
(
0.0210931
0.0200462
0.0198138
0.0200088
0.0199461
0.0206103
0.0200592
0.0179953
0.0190604
0.0183413
0.0199366
0.0207089
0.0210182
0.0193719
0.0193622
0.019218
0.0190605
0.0183152
0.0188374
0.018502
0.0186765
0.0210633
0.022966
0.0207495
0.0211933
0.0107923
0.0105436
0.0112817
0.010454
0.0104606
0.0109126
0.0107985
0.0107447
0.0106824
0.0100736
0.0104551
0.00992935
0.00987303
0.00932775
0.00901319
0.00889127
0.0088153
0.00920569
0.00930478
0.0091619
0.0100855
0.0109541
0.011608
0.0109706
0.0111516
0.010853
0.0106541
0.0111011
0.0105655
0.010559
0.0108979
0.0107756
0.010321
0.0107077
0.0102317
0.0106893
0.0103441
0.0100128
0.00928892
0.00891463
0.00869085
0.00873153
0.00880079
0.00879872
0.00992771
0.0108978
0.0129139
0.0142323
0.0124621
0.0115168
0.0108013
0.0108665
0.0111894
0.0107549
0.0104954
0.0105331
0.0108001
0.0105979
0.0109682
0.0105089
0.010796
0.010563
0.00964765
0.00943081
0.0091209
0.00919468
0.00936548
0.0097347
0.0103396
0.0115683
0.0129474
0.0152406
0.0181394
0.014832
0.0120512
0.0108444
0.0111587
0.0113202
0.0109061
0.0102968
0.010145
0.0104277
0.0106348
0.0105421
0.0109703
0.0108182
0.0106214
0.00985674
0.0097108
0.00938281
0.00949619
0.0100617
0.0100845
0.0116684
0.0138672
0.0170339
0.0209199
0.0233519
0.0176048
0.0124265
0.01081
0.0112514
0.0115381
0.0109925
0.0102026
0.00990042
0.00993769
0.0101742
0.0105808
0.0111131
0.0110652
0.0110037
0.0104749
0.010994
0.01007
0.0112707
0.0113344
0.0132823
0.0135044
0.0176745
0.0221993
0.0265562
0.0279565
0.0257187
0.0162412
0.0108355
0.0110272
0.0120898
0.0113159
0.0100988
0.00966181
0.00959864
0.00955462
0.00971359
0.00996444
0.0103683
0.0112886
0.0119221
0.0122617
0.0115453
0.01247
0.0120085
0.0142706
0.0165447
0.0212393
0.0266175
0.0315931
0.0325647
0.0278087
0.022337
0.0108053
0.0108746
0.0121473
0.0117075
0.0103423
0.00967878
0.00926857
0.00931598
0.00997067
0.0102631
0.0104996
0.0122819
0.0135065
0.0146996
0.0151577
0.0152604
0.0150805
0.0176393
0.0195357
0.0263259
0.0317082
0.0362366
0.0374046
0.0292542
0.0202432
0.0108292
0.0110185
0.011886
0.0117317
0.0103563
0.00970259
0.00919278
0.00922763
0.0101368
0.0105041
0.0114402
0.0132821
0.0146556
0.0154498
0.0162111
0.0171948
0.018655
0.0208805
0.0238089
0.0309246
0.0365345
0.0399821
0.0373421
0.0233642
0.0139682
0.0107841
0.010839
0.0114361
0.0115959
0.0108032
0.00968728
0.00922293
0.00910484
0.00950087
0.00975249
0.00964324
0.0108424
0.0122016
0.013985
0.0154839
0.0166911
0.0187749
0.0219435
0.0249523
0.0310454
0.0366927
0.0396266
0.0384265
0.022213
0.0128812
0.0108095
0.0107543
0.0110044
0.0113156
0.0105859
0.00985934
0.00927503
0.00911361
0.00914841
0.00914758
0.00834261
0.00924453
0.0107162
0.0126329
0.0157248
0.0178482
0.0212651
0.0244702
0.0271756
0.0311864
0.0364759
0.0380473
0.0346168
0.0138128
0.0112991
0.0107798
0.0107136
0.010974
0.0111105
0.0106482
0.00980478
0.00932276
0.00917119
0.00900656
0.00893509
0.0085654
0.00856851
0.00945467
0.0113529
0.0136512
0.0155424
0.0181253
0.0215384
0.0235122
0.0258292
0.0311998
0.0343262
0.0323759
0.0135148
0.0110529
0.0108131
0.0108826
0.0109127
0.0109884
0.0106382
0.00993747
0.00937267
0.00918192
0.00908423
0.00894475
0.00875282
0.00893092
0.00907581
0.01033
0.0123111
0.0139232
0.0146453
0.0157693
0.0177551
0.0200725
0.0230267
0.0256347
0.0224054
0.0138058
0.0109818
0.0107853
0.0107462
0.0109035
0.0109175
0.0108052
0.00992196
0.00937079
0.00920795
0.00913892
0.0089181
0.00872051
0.00873046
0.00895763
0.00979817
0.0104281
0.0116477
0.0125622
0.0135441
0.0150486
0.0166796
0.0183706
0.0208067
0.0192292
0.0121147
0.0105437
0.0108
0.0108433
0.0109244
0.010827
0.0107199
0.00999471
0.00943402
0.00919647
0.00913583
0.00882414
0.00882196
0.00878409
0.00893962
0.00916576
0.00949341
0.0102687
0.0110963
0.0117874
0.013
0.0138017
0.0155089
0.019036
0.0208934
0.0137885
0.0105294
0.0107708
0.0106255
0.0106951
0.0107169
0.0105884
0.0100908
0.00946906
0.00920371
0.00909853
0.00878765
0.00886246
0.00887742
0.00885773
0.00895941
0.00917351
0.00970749
0.010242
0.0105363
0.0108579
0.0121396
0.0133695
0.0164109
0.0188486
0.0152129
0.0107046
0.0107992
0.010542
0.0105398
0.0104923
0.0104225
0.0100323
0.00949326
0.00920931
0.00913434
0.0087969
0.00895035
0.00904084
0.00908471
0.00878815
0.00859915
0.00870433
0.00899409
0.00926358
0.00985787
0.0109581
0.0120518
0.0141424
0.0167144
0.0134169
0.0109263
0.0107725
0.0105013
0.0105449
0.0104542
0.0103562
0.0100211
0.00951024
0.00916955
0.00919134
0.00884264
0.00896372
0.00902373
0.00885645
0.00832472
0.00755628
0.00760682
0.00795983
0.00800819
0.00859673
0.00972043
0.0109697
0.0124988
0.0149384
0.013329
0.0107655
0.0107877
0.0106276
0.0105872
0.0105031
0.0103789
0.0100307
0.00955422
0.00919438
0.00913134
0.00893571
0.00855544
0.00873891
0.00884901
0.00825605
0.00779117
0.00744789
0.00739984
0.00729353
0.00737727
0.00796852
0.00945651
0.0112507
0.0129904
0.0126065
0.0108256
0.0107757
0.0104764
0.0106267
0.0104856
0.0103701
0.0100856
0.00960008
0.00928184
0.00910155
0.00899084
0.00862754
0.00877495
0.00875168
0.00864908
0.0071052
0.00746287
0.00727575
0.00724045
0.00708912
0.0074019
0.00861052
0.0103865
0.0114027
0.0113914
0.0109707
0.0107925
0.010438
0.0104981
0.0105109
0.0103807
0.0101353
0.00971165
0.00938198
0.00918833
0.00900434
0.0088026
0.00841496
0.00857725
0.00837003
0.00816519
0.00790048
0.0074151
0.00777563
0.00731646
0.0069133
0.00815188
0.00978204
0.0109367
0.0108385
0.0108244
0.0107807
0.0104097
0.0105389
0.010512
0.0103272
0.0100881
0.00971146
0.00940292
0.00925143
0.00906913
0.00882014
0.00866023
0.00839094
0.0083786
0.00824511
0.00829235
0.00837134
0.00809207
0.00713017
0.00669998
0.00784802
0.00923725
0.0106654
0.010354
0.0109716
0.0107856
0.010701
0.0104372
0.0105058
0.0103681
0.0101136
0.0098565
0.00953453
0.00933597
0.00921383
0.00895615
0.00879275
0.00866824
0.0085153
0.00843421
0.00833137
0.00813143
0.00801349
0.0076533
0.00684894
0.0079379
0.00894119
0.0107345
0.0112219
0.0101466
0.0107707
0.0103472
0.0102994
0.0104687
0.0104836
0.0102804
0.0100215
0.0097555
0.00965167
0.0093319
0.00906221
0.00872521
0.00873883
0.00864491
0.00862398
0.00875272
0.00856919
0.00803752
0.00773594
0.00693251
0.00729629
0.00849441
0.00993132
0.0116731
0.0125786
0.0213762
0.0203622
0.0196503
0.019101
0.01856
0.0181138
0.017789
0.017564
0.017352
0.016997
0.0164188
0.0173776
0.0178994
0.0168395
0.0172471
0.0173096
0.0170837
0.0165857
0.0153775
0.0156476
0.0165891
0.0158284
0.0188791
0.0210141
0.0213345
0.0211991
0.0206878
0.0214629
0.0219188
0.021598
0.0234261
0.0226623
0.0218234
0.0215917
0.0207451
0.0200117
0.0191235
0.0180089
0.0173548
0.0172892
0.0173193
0.0172485
0.0162278
0.0176805
0.0170306
0.0191463
0.0243256
0.0238999
0.022559
0.0231596
0.327462
0.100642
0.0608016
0.0401036
0.0384055
0.0382643
0.0308489
0.0280733
0.0252653
0.0227938
0.0224677
0.0243426
0.0276935
0.0318084
0.0384895
0.0396926
0.0382475
0.0468762
0.053303
0.0525959
0.0460801
0.0426656
0.048176
0.0811713
0.0532509
0.340889
0.13277
0.0608751
0.0395799
0.0370457
0.0294982
0.0269593
0.0236143
0.0216467
0.0228321
0.0232216
0.0256046
0.0259615
0.0353709
0.0420149
0.0428406
0.0343608
0.055599
0.0638173
0.0572916
0.0652683
0.050542
0.0827361
0.105583
0.444572
0.340559
0.140875
0.0634921
0.0466772
0.045007
0.0363081
0.0309044
0.0253673
0.0214655
0.0201802
0.0221752
0.0250213
0.0300832
0.0349834
0.0435879
0.0426281
0.0379918
0.0515806
0.0611631
0.0578162
0.07806
0.0625385
0.095931
0.0797417
0.282385
0.341346
0.145744
0.0639949
0.0465265
0.0404441
0.0349229
0.0416484
0.0420635
0.02009
0.0201086
0.0196533
0.021539
0.0260253
0.0281058
0.0315587
0.0347298
0.0450396
0.0433787
0.0493101
0.06614
0.0818721
0.0986074
0.10009
0.158236
0.704172
0.341735
0.149809
0.0661155
0.039577
0.0328099
0.039704
0.0501204
0.0537539
0.0245498
0.0199523
0.0174197
0.0193979
0.0234219
0.0301067
0.0362695
0.0451164
0.0535424
0.0600769
0.0672457
0.0675729
0.0858616
0.1148
0.0725468
0.146032
0.239955
0.343966
0.142288
0.066577
0.0408424
0.0321603
0.0315682
0.0361358
0.0395288
0.034143
0.027016
0.0183064
0.0177924
0.0200213
0.0269185
0.0328772
0.0457929
0.0590911
0.0630263
0.0667753
0.0644262
0.0860079
0.108681
0.0636449
0.102389
0.125449
0.342898
0.153149
0.0698643
0.0393292
0.0300425
0.0269773
0.0309447
0.0340304
0.0351533
0.0277245
0.0215338
0.0189049
0.0176784
0.0218357
0.0281205
0.0367836
0.0475627
0.0576706
0.0601381
0.0624387
0.0862844
0.10145
0.105293
0.120219
0.0797788
0.344045
0.14725
0.0726128
0.0397462
0.0313849
0.0254799
0.0286446
0.0318466
0.0314951
0.0278936
0.0241492
0.0216177
0.0195111
0.0203448
0.0251582
0.0336994
0.0396755
0.0509355
0.0559044
0.0610196
0.0958657
0.108594
0.0965639
0.152179
0.0668074
0.344534
0.145813
0.0751898
0.0396549
0.0319254
0.0243368
0.0266389
0.0282654
0.0263208
0.0278708
0.0243892
0.0194445
0.0215396
0.0195
0.0220487
0.0290255
0.0359144
0.0433428
0.0500913
0.059195
0.0862762
0.119318
0.141727
0.201052
0.494303
0.343883
0.148563
0.086903
0.0456519
0.0325346
0.0239834
0.0237928
0.0249421
0.0230016
0.0232358
0.0243703
0.0187024
0.0228226
0.0192258
0.0198459
0.0236197
0.0286628
0.0357198
0.0421406
0.044148
0.0719711
0.120364
0.125438
0.194382
0.481266
0.344173
0.146117
0.0902502
0.0470829
0.0317462
0.0237981
0.0236564
0.0236779
0.0226093
0.0208578
0.0207233
0.0183922
0.0222283
0.0194805
0.0195778
0.0225527
0.0270875
0.0316869
0.035609
0.0345943
0.0444108
0.0927817
0.121006
0.201097
0.453295
0.342782
0.151354
0.0929898
0.0519586
0.0335786
0.023859
0.0226538
0.0224785
0.0212182
0.0180799
0.0213559
0.0160203
0.0224363
0.0204815
0.021307
0.0210502
0.0247587
0.0296862
0.0327535
0.0317298
0.0359552
0.0727998
0.127809
0.205547
0.411951
0.342944
0.148603
0.0934535
0.0553546
0.0395533
0.0257944
0.0219673
0.0208382
0.019487
0.0185618
0.0183895
0.0201883
0.0184618
0.024788
0.022874
0.0217091
0.0257068
0.0297103
0.0296676
0.0284048
0.033377
0.0722439
0.121384
0.197249
0.414174
0.342292
0.149981
0.0887127
0.0562718
0.0387283
0.0279189
0.0237042
0.0204407
0.0194389
0.0176169
0.0170818
0.0210719
0.0165241
0.0230443
0.0198883
0.0219651
0.0265635
0.0311491
0.0274574
0.0234418
0.0283104
0.0611102
0.0805272
0.113157
0.311756
0.34175
0.150904
0.088793
0.0566506
0.0408869
0.0299777
0.0256878
0.02177
0.0200559
0.0180093
0.0172525
0.0181323
0.0176929
0.0192196
0.0174251
0.0192491
0.0261613
0.0354737
0.0263817
0.0219144
0.024761
0.0467462
0.0538907
0.0879339
0.250186
0.34127
0.151302
0.0903911
0.0580769
0.040667
0.0307785
0.0258614
0.021913
0.0196683
0.0176476
0.0164086
0.0160549
0.0160808
0.0158826
0.0153786
0.0169308
0.0271463
0.0327978
0.0298117
0.0238474
0.0272173
0.0455509
0.0380404
0.0652279
0.194405
0.340985
0.151412
0.0915443
0.0597551
0.0414059
0.0323667
0.0263443
0.0221073
0.0198962
0.0176551
0.0163047
0.0158058
0.0161273
0.0159308
0.0154766
0.0156487
0.0221641
0.0269031
0.03626
0.0270544
0.032724
0.0527092
0.0314901
0.0523867
0.161434
0.340477
0.151348
0.0960987
0.0631261
0.0440834
0.0348037
0.0278454
0.0234402
0.0208072
0.0183581
0.0163114
0.0168891
0.0170695
0.0168147
0.017133
0.0169846
0.0182269
0.0322651
0.0364055
0.0302365
0.0317809
0.0425284
0.0544427
0.0735757
0.101822
0.340418
0.151032
0.0952339
0.0656867
0.047352
0.0354957
0.0280979
0.0234497
0.0208832
0.0185446
0.0166782
0.0171717
0.0173227
0.0171909
0.0174398
0.0172055
0.0180335
0.0250017
0.0336462
0.0306512
0.0255875
0.046953
0.0586808
0.0528577
0.174536
0.340076
0.151275
0.0940198
0.0651949
0.046933
0.036002
0.0281724
0.023397
0.0209978
0.0188522
0.0173267
0.016487
0.0157622
0.0154291
0.0141233
0.0151614
0.0153743
0.0180995
0.0385092
0.0327192
0.0319739
0.046041
0.075063
0.11833
0.229658
0.339879
0.152142
0.0964149
0.0657983
0.0468233
0.0359661
0.0287219
0.0239324
0.021141
0.0191143
0.0176708
0.0166213
0.0156104
0.0154343
0.0155335
0.0146213
0.0169046
0.017021
0.0332672
0.0428131
0.0585916
0.0765654
0.10478
0.118169
0.518534
0.339988
0.149075
0.0959421
0.0671283
0.04813
0.0368154
0.029995
0.0249303
0.0217246
0.0197624
0.0182176
0.017012
0.0156911
0.0155759
0.0151811
0.0149337
0.0163454
0.0170643
0.0247992
0.0490941
0.0761918
0.0995371
0.13654
0.139851
0.349213
0.338672
0.146816
0.0954244
0.0681754
0.0504467
0.0386793
0.0311629
0.0265424
0.0234724
0.0214786
0.019472
0.0180943
0.016356
0.0162269
0.0159273
0.0158164
0.0163362
0.0184154
0.0200239
0.0497188
0.104822
0.0985894
0.127458
0.230347
0.397302
0.0218013
0.019837
0.0187621
0.0182654
0.0175571
0.0168995
0.0162456
0.016292
0.015803
0.0154958
0.0146915
0.0158825
0.0159354
0.0167057
0.0172662
0.0165888
0.0162097
0.0158808
0.016091
0.0158006
0.016897
0.0191673
0.0193476
0.0211462
0.0213654
0.0211818
0.0211391
0.0214539
0.0212496
0.0214437
0.0227066
0.0218201
0.0206562
0.020414
0.0195102
0.0184807
0.0187257
0.0172269
0.0166598
0.0161081
0.0153364
0.0149517
0.0144867
0.0148436
0.0167723
0.0176084
0.0214935
0.020552
0.020626
0.021202
0.313333
0.0887717
0.0524895
0.0390466
0.0376476
0.0369994
0.0385623
0.0357729
0.0372282
0.0393965
0.0428626
0.0451452
0.0419139
0.0497134
0.0570365
0.052546
0.0565844
0.0664214
0.0733732
0.0636907
0.0787824
0.0613254
0.0655674
0.0821881
0.0692376
0.337319
0.117053
0.0632692
0.0446998
0.0392932
0.0327335
0.0351915
0.0349543
0.031985
0.0287553
0.0330275
0.0271484
0.0345038
0.0330661
0.0382634
0.0396377
0.0395124
0.0378774
0.038736
0.0464839
0.060184
0.0662163
0.102011
0.13398
0.196674
0.338998
0.128603
0.0661105
0.0435338
0.0432677
0.0431155
0.0315035
0.0296245
0.0254422
0.0269922
0.0268444
0.0250731
0.0271155
0.0236698
0.0279146
0.0303846
0.0311897
0.0291058
0.0391487
0.0468412
0.0620111
0.0764494
0.113694
0.176608
0.331981
0.339809
0.135617
0.066656
0.0459491
0.0417125
0.0451979
0.0472149
0.0577783
0.0320547
0.0289812
0.0267772
0.0247402
0.0248561
0.0249331
0.0247935
0.0304102
0.0289875
0.0301802
0.0381506
0.0402969
0.0587372
0.099405
0.100824
0.196754
0.373687
0.340757
0.139794
0.0689602
0.0467004
0.0379873
0.0373288
0.0404626
0.041918
0.0318903
0.0278995
0.025126
0.0237498
0.0236536
0.0220589
0.0271905
0.0301705
0.0302666
0.0341471
0.041953
0.0466099
0.0570187
0.0786914
0.0784132
0.181785
0.381819
0.341233
0.143333
0.0703043
0.0466261
0.0334475
0.0297151
0.0291646
0.0355213
0.0333808
0.0302229
0.0221343
0.021208
0.0216337
0.0234633
0.0298174
0.0313654
0.0302794
0.0364087
0.0398239
0.0464849
0.0685066
0.103011
0.0820121
0.129357
0.289884
0.341671
0.145434
0.076444
0.0439239
0.0331879
0.0275733
0.0264468
0.0279866
0.0291605
0.0242107
0.0213754
0.0211696
0.0225849
0.0243924
0.0288222
0.0301149
0.0319739
0.0367088
0.0408809
0.046678
0.0707377
0.100521
0.137519
0.125019
0.184835
0.341919
0.146183
0.0805738
0.0457737
0.0328274
0.0271515
0.0257414
0.0243638
0.0264543
0.02556
0.0215831
0.0234652
0.0229492
0.0235962
0.0269444
0.0310122
0.0334366
0.0349675
0.0365327
0.0435358
0.0734264
0.109978
0.152825
0.180089
0.107518
0.341578
0.149868
0.082433
0.0478456
0.0336003
0.0267984
0.0241164
0.0221555
0.0229737
0.0229706
0.0242948
0.0250752
0.0245388
0.0233901
0.0251092
0.0289363
0.0303115
0.0331062
0.0359224
0.0402682
0.0674152
0.124278
0.166725
0.2024
0.244774
0.341713
0.148492
0.0914789
0.0518167
0.0378258
0.0292593
0.0254478
0.023499
0.0219018
0.022778
0.0253565
0.0242011
0.0233593
0.0211988
0.0240718
0.0260173
0.0277692
0.0304538
0.0332529
0.038246
0.0651643
0.116448
0.1589
0.209769
0.276
0.341532
0.149758
0.0929287
0.0568694
0.0392763
0.0299526
0.0252195
0.0229558
0.0211728
0.0202986
0.0224316
0.0247042
0.0216266
0.0208835
0.0218565
0.0244395
0.0263095
0.0283818
0.03174
0.036716
0.0453568
0.113955
0.179081
0.169113
0.40222
0.340685
0.153668
0.0898185
0.0557933
0.0387887
0.0295103
0.0239285
0.0221882
0.0208605
0.0199353
0.0201842
0.0223729
0.0215424
0.0200763
0.0213941
0.0221997
0.0239237
0.0268081
0.0307684
0.036391
0.0396707
0.0925439
0.141512
0.165542
0.401076
0.340306
0.153874
0.0949726
0.0637675
0.0399425
0.0291283
0.0239024
0.0215875
0.0206359
0.0189452
0.0195607
0.0212392
0.0201718
0.0203139
0.0197159
0.0206125
0.0224307
0.0264663
0.029528
0.0372111
0.0389958
0.0829579
0.121216
0.16716
0.28648
0.340087
0.15382
0.0949648
0.0646549
0.0428293
0.0305029
0.0243241
0.0219546
0.0201672
0.0184893
0.0187502
0.0183811
0.0201653
0.020063
0.0191124
0.0188437
0.0210287
0.0255258
0.0273577
0.0348368
0.0407662
0.0696826
0.0911046
0.124205
0.294355
0.340001
0.153478
0.0952605
0.0626606
0.0439996
0.0323735
0.0257301
0.0223326
0.0199543
0.0185118
0.0173671
0.0173063
0.0166919
0.0172989
0.0170617
0.0170307
0.0204912
0.0244567
0.0246324
0.035752
0.0405989
0.076148
0.101338
0.121747
0.313462
0.339652
0.153917
0.0926311
0.0620535
0.0466288
0.0345302
0.0267413
0.0226807
0.020069
0.0185342
0.0172752
0.0168099
0.0167566
0.0168415
0.0165985
0.0163106
0.0188737
0.0239702
0.0252937
0.0346724
0.0481864
0.056062
0.0773388
0.106841
0.250339
0.339608
0.15315
0.0932154
0.0633484
0.0455449
0.0372686
0.0280906
0.0237584
0.0205004
0.0188059
0.0173322
0.0171265
0.0158569
0.0154856
0.0148491
0.0154015
0.0170834
0.0228364
0.0267803
0.0331535
0.05195
0.0597399
0.0700346
0.0884038
0.205179
0.339818
0.151489
0.0918187
0.066085
0.0474633
0.0360386
0.0297575
0.0249625
0.0212225
0.0191901
0.0175915
0.0170752
0.0158436
0.0152998
0.014874
0.0152195
0.0158059
0.0197733
0.0232823
0.0336269
0.0541673
0.0727201
0.0680539
0.110141
0.400226
0.339377
0.1522
0.093181
0.0655092
0.047846
0.0366337
0.0296805
0.0254274
0.0217957
0.0196252
0.0178117
0.0172743
0.0158648
0.0152653
0.0147929
0.0145972
0.0153684
0.0176261
0.022605
0.0317954
0.0567384
0.0643988
0.0720899
0.114859
0.274449
0.339508
0.149901
0.0979309
0.0655779
0.0500248
0.0375767
0.0300997
0.0256433
0.0222062
0.0199186
0.018064
0.0173885
0.0160619
0.0145215
0.0145549
0.0144168
0.0146256
0.0155266
0.0252772
0.0304736
0.0600217
0.0857262
0.0692954
0.108919
0.138106
0.339615
0.149134
0.0962665
0.0670715
0.0494075
0.0389815
0.0313525
0.0262224
0.0226166
0.0202797
0.0184034
0.0174861
0.0161373
0.0146648
0.0146095
0.0149756
0.0154499
0.0159233
0.0242908
0.0315343
0.0547889
0.0935268
0.116321
0.172512
0.228647
0.338593
0.147626
0.0967868
0.068793
0.0505075
0.039598
0.0319422
0.0267391
0.0232531
0.0210204
0.0191273
0.0178296
0.0167344
0.0151281
0.0151998
0.0150243
0.0151831
0.0168586
0.0200763
0.0376549
0.0576681
0.103767
0.170418
0.280183
0.66449
0.338498
0.14564
0.0957635
0.069277
0.0523947
0.0407474
0.0331557
0.0281556
0.0246113
0.0224173
0.0201111
0.0186686
0.0172259
0.0157387
0.0158098
0.0163616
0.0174605
0.0201817
0.0218809
0.0284585
0.0709491
0.0819292
0.143341
0.200569
0.358478
0.0218285
0.0198517
0.0187927
0.0181262
0.0174415
0.0167175
0.0158887
0.0154532
0.0150428
0.0141379
0.0150184
0.0150866
0.0144342
0.0142508
0.014176
0.015024
0.0156828
0.0151274
0.0158636
0.0153781
0.0158213
0.018141
0.0215242
0.0245932
0.0237674
0.0211943
0.0211701
0.0212609
0.0209022
0.0201915
0.0216367
0.0216744
0.0212651
0.0208185
0.0201479
0.0197742
0.0192849
0.0173569
0.0170993
0.0163651
0.0153045
0.0151934
0.0148804
0.015071
0.0170943
0.0161309
0.0180789
0.0174332
0.019552
0.0193035
0.314017
0.0867003
0.0514062
0.0427513
0.0411728
0.045404
0.0485396
0.0521634
0.0561957
0.0689056
0.07052
0.0702792
0.0660555
0.0615526
0.0516122
0.0521502
0.0619138
0.081106
0.0861391
0.086957
0.0685569
0.0755906
0.0792306
0.155692
0.174099
0.336686
0.118227
0.0635999
0.0454327
0.0423991
0.0415345
0.0409761
0.0409036
0.0425416
0.0387245
0.0371318
0.0353557
0.0376694
0.0326963
0.0347803
0.0363423
0.0416078
0.043468
0.0547454
0.0569856
0.070537
0.0822568
0.136564
0.201156
0.189061
0.338191
0.130339
0.0661374
0.050995
0.0439072
0.0468713
0.0392425
0.0377088
0.0384191
0.027213
0.0303995
0.0287478
0.027201
0.0239215
0.0279716
0.0281684
0.0291167
0.0293009
0.0330962
0.0484338
0.0792629
0.0821832
0.133343
0.18675
0.228159
0.339053
0.136352
0.068728
0.0466539
0.0383222
0.0429903
0.0425748
0.0390282
0.0384243
0.0298597
0.0272247
0.0250065
0.0221931
0.023964
0.0260087
0.0262931
0.027475
0.0276546
0.0324585
0.0409575
0.068166
0.102705
0.126988
0.121364
0.223579
0.339848
0.140474
0.0714895
0.048899
0.033588
0.0351284
0.0340629
0.0339293
0.0386187
0.0330583
0.0298247
0.0257964
0.0248375
0.023862
0.0260874
0.0269662
0.0264437
0.0297067
0.0327143
0.0356226
0.053833
0.106161
0.0904299
0.144769
0.23974
0.340507
0.14291
0.0748104
0.0473074
0.0339485
0.0292388
0.027258
0.0285607
0.032133
0.0309878
0.025681
0.0257829
0.0230238
0.0224874
0.0226084
0.0261247
0.0280739
0.0316477
0.0342151
0.0385125
0.0520907
0.0964165
0.111097
0.15921
0.269429
0.340808
0.146174
0.0782146
0.0484627
0.0353735
0.0275095
0.0246377
0.0244028
0.027172
0.0280499
0.0240602
0.0246734
0.0225081
0.0234608
0.0224428
0.0276397
0.0292814
0.0314422
0.0359814
0.0454083
0.0619764
0.100168
0.103579
0.194123
0.329023
0.341165
0.146956
0.0814557
0.0493093
0.0355982
0.0280839
0.0243644
0.0222257
0.0226155
0.0274157
0.0266637
0.0278779
0.0251738
0.0235747
0.0222709
0.0257933
0.0293197
0.0321927
0.0385797
0.0471748
0.0682592
0.110867
0.134426
0.203334
0.313997
0.341389
0.147266
0.0824388
0.0552373
0.0357044
0.0274252
0.0243969
0.0221798
0.0214829
0.0218533
0.0235925
0.0241995
0.0220602
0.0222943
0.0207395
0.0237516
0.0264924
0.0307924
0.0376952
0.0473246
0.0663394
0.147143
0.233675
0.317462
0.342106
0.340363
0.154117
0.0844605
0.056973
0.0376095
0.0289445
0.0248694
0.0217034
0.020164
0.020229
0.0209077
0.0228346
0.0211237
0.0195595
0.0197116
0.0219782
0.0242534
0.0282876
0.0325294
0.0420919
0.066518
0.168503
0.242704
0.315615
0.399188
0.340799
0.1504
0.0887111
0.0559654
0.0386933
0.0289841
0.0251262
0.0219628
0.0196685
0.0197829
0.019827
0.02114
0.0199122
0.0192376
0.0187595
0.0215315
0.0229596
0.0236774
0.0254158
0.0326111
0.0519065
0.159635
0.239728
0.313554
0.357272
0.340739
0.150149
0.0886668
0.0573754
0.0400661
0.0297721
0.0249317
0.0220072
0.019934
0.0195126
0.0201213
0.0204409
0.0193214
0.0197647
0.0186178
0.0196709
0.0218268
0.0217082
0.022479
0.0300323
0.0443703
0.175931
0.227736
0.322551
0.47333
0.340253
0.152113
0.0959138
0.0588238
0.0404815
0.0328404
0.0256267
0.0218754
0.0196859
0.0193079
0.0194132
0.0198476
0.0184607
0.0193697
0.0184448
0.0183166
0.019863
0.019969
0.0205461
0.0271686
0.0454822
0.156425
0.206652
0.265628
0.427163
0.340181
0.151214
0.0912336
0.0635202
0.0426345
0.0330591
0.0267094
0.0220202
0.0198814
0.0184859
0.0177364
0.017465
0.0174972
0.0164277
0.0170245
0.0169037
0.0186013
0.019099
0.0194175
0.0243983
0.0428861
0.126647
0.196898
0.245633
0.474386
0.33991
0.152315
0.0932271
0.064104
0.0455017
0.0330386
0.0283781
0.0228006
0.0203574
0.0185212
0.0174006
0.0172541
0.0162077
0.0168125
0.0160768
0.0161583
0.0173546
0.0183348
0.0187845
0.0249988
0.0382419
0.083209
0.165843
0.212383
0.4713
0.339906
0.151367
0.0949847
0.0624549
0.0461731
0.0346158
0.0285705
0.0233254
0.0208748
0.019041
0.0173802
0.0172507
0.0161745
0.0155821
0.0151153
0.0156374
0.0156737
0.0168037
0.0187141
0.0242454
0.0347638
0.0576115
0.137178
0.184542
0.433907
0.339897
0.151756
0.0943682
0.0652825
0.0474042
0.035605
0.0285661
0.024359
0.0213853
0.019416
0.0175295
0.0172493
0.0159187
0.0159878
0.0163287
0.0158518
0.0158274
0.0162112
0.0183596
0.0237916
0.0375145
0.0556026
0.110534
0.206027
0.528223
0.340073
0.148989
0.0932227
0.0656926
0.0488296
0.0374745
0.0294427
0.0249141
0.0216073
0.0196143
0.0176433
0.017316
0.0162295
0.0147255
0.015039
0.0153174
0.0154916
0.0166787
0.0185722
0.0235684
0.042209
0.060701
0.104142
0.150183
0.262162
0.339746
0.150914
0.0944465
0.0658276
0.0495148
0.0386688
0.0300935
0.025286
0.0220113
0.0198283
0.01793
0.017427
0.0161505
0.0159284
0.0150135
0.015453
0.0156502
0.0157997
0.016269
0.0260522
0.0433716
0.0799553
0.0934424
0.145683
0.389008
0.340136
0.148911
0.092964
0.0661526
0.049802
0.0378271
0.0306074
0.025656
0.0222887
0.0200201
0.0182055
0.0174688
0.0162769
0.0149765
0.0137987
0.0139576
0.0137404
0.014466
0.0158832
0.0230786
0.0454834
0.0847291
0.134284
0.203284
0.305582
0.339908
0.151273
0.0962226
0.0689122
0.0514791
0.0392831
0.031431
0.0262641
0.0226906
0.020546
0.0186824
0.0177496
0.0163589
0.0150901
0.0137962
0.0138312
0.0142284
0.0145314
0.0162438
0.0225842
0.0434913
0.0727842
0.121653
0.136074
0.163838
0.340621
0.14897
0.0955373
0.0687053
0.0504055
0.0393963
0.0317772
0.0267118
0.0232348
0.0210822
0.0191398
0.0180068
0.0165728
0.0155885
0.0141183
0.0138169
0.014056
0.0141118
0.016256
0.0229334
0.0384843
0.089065
0.154566
0.173425
0.250171
0.339083
0.146504
0.0940877
0.0692572
0.0513328
0.0405543
0.0330253
0.0278017
0.0242115
0.0217297
0.0197912
0.0184011
0.0171641
0.0156193
0.0161165
0.0151849
0.0160416
0.0169963
0.0185579
0.0243
0.0330991
0.0392624
0.121932
0.235879
0.544568
0.0218012
0.0199379
0.0188004
0.0180141
0.0174966
0.0165303
0.0158278
0.0152985
0.0147836
0.0146129
0.0144395
0.0137371
0.0150633
0.0146628
0.0142002
0.0154546
0.014911
0.0158175
0.0159551
0.0156511
0.0156525
0.0193222
0.0230419
0.0236151
0.0229677
0.0211726
0.0211393
0.0213476
0.0197995
0.0187154
0.0194991
0.0186612
0.0199185
0.0201607
0.0190775
0.018447
0.0187028
0.0186501
0.0180816
0.0174232
0.0160673
0.0158287
0.0153395
0.0153447
0.016498
0.0177332
0.020072
0.0202642
0.0223983
0.0213715
0.317902
0.0892085
0.0528996
0.0414184
0.0380579
0.0461768
0.0497684
0.0534592
0.0571364
0.0601682
0.0748842
0.0646738
0.101952
0.125457
0.154097
0.116857
0.0928166
0.0788663
0.0736917
0.0800416
0.11274
0.091382
0.133164
0.250322
0.146049
0.337529
0.123237
0.0636484
0.0482983
0.0520976
0.0437715
0.0413681
0.0439418
0.0442454
0.057026
0.0816688
0.0666695
0.0568059
0.044382
0.0370169
0.0371706
0.0394183
0.050345
0.0647747
0.0693137
0.0702982
0.121605
0.189035
0.133417
0.14054
0.338402
0.134256
0.0683471
0.0464346
0.0458726
0.0429475
0.0444179
0.0439401
0.0476594
0.036365
0.0424131
0.0401486
0.0355922
0.0277126
0.0266616
0.0287646
0.0301802
0.0306764
0.040403
0.0802075
0.0820538
0.0994318
0.149865
0.158085
0.277505
0.339005
0.138978
0.0735183
0.0443034
0.040574
0.0334877
0.0405931
0.0423552
0.038938
0.03635
0.0350516
0.034068
0.0262441
0.0263292
0.0271022
0.0272856
0.0270932
0.0281548
0.0309654
0.0487482
0.0791392
0.11816
0.156773
0.159558
0.336691
0.339646
0.142374
0.0748754
0.044943
0.038057
0.0307699
0.0310789
0.0335401
0.0309954
0.0348145
0.0308428
0.0272796
0.0275469
0.0254574
0.024689
0.0241182
0.0247328
0.0274311
0.029539
0.0422181
0.0771641
0.123456
0.148965
0.205363
0.4618
0.340298
0.143734
0.0819853
0.0472403
0.0365973
0.0291226
0.0255429
0.0257502
0.0248837
0.0313072
0.0285274
0.0240263
0.021117
0.020459
0.0200416
0.0229121
0.0241658
0.026577
0.0297674
0.0436167
0.0658158
0.107082
0.147045
0.210427
0.381259
0.340729
0.14551
0.0813614
0.048949
0.0350684
0.028414
0.0245226
0.023241
0.0222251
0.0248077
0.0241007
0.0231412
0.0205861
0.0207856
0.0197058
0.0205562
0.0233472
0.0265552
0.0293524
0.0488936
0.0696691
0.107412
0.158186
0.22962
0.314055
0.341136
0.145587
0.0817994
0.0548347
0.0358586
0.0285579
0.0238908
0.0216337
0.0209416
0.020409
0.0236001
0.0225375
0.0205963
0.020692
0.0193539
0.0197219
0.0223496
0.0251549
0.0317281
0.0520674
0.0832019
0.119703
0.119386
0.283588
0.481561
0.340316
0.152671
0.0836809
0.0561327
0.040373
0.0297154
0.0242659
0.021558
0.020563
0.0198998
0.0213564
0.0201153
0.0198521
0.0178041
0.0177522
0.0183339
0.0197122
0.022311
0.0316608
0.0540642
0.0942126
0.161373
0.195594
0.390784
0.479552
0.341004
0.148312
0.0910182
0.0588782
0.0414589
0.03133
0.0244023
0.0211436
0.0197553
0.0188595
0.0193594
0.0196316
0.0201692
0.0188962
0.0183374
0.018612
0.0190988
0.0210644
0.029196
0.0436671
0.0977768
0.208495
0.27006
0.523111
0.766476
0.340654
0.150686
0.0925181
0.0604522
0.0417984
0.0318332
0.0251016
0.0214967
0.019868
0.0186481
0.0185467
0.0175087
0.0186144
0.018729
0.0178352
0.0175077
0.0182279
0.0188443
0.0224226
0.03084
0.0903087
0.22587
0.314226
0.495872
0.646778
0.3404
0.151412
0.0947835
0.0589895
0.0412058
0.031219
0.0253841
0.0214586
0.0199553
0.0184219
0.0181969
0.0174804
0.0182417
0.0182563
0.017476
0.0166747
0.0169778
0.0179601
0.0200525
0.0262441
0.0866191
0.246365
0.298401
0.442273
0.667231
0.340109
0.152403
0.0906599
0.0584411
0.0414904
0.0315987
0.0263894
0.0216839
0.019782
0.0183677
0.017732
0.0173415
0.0165514
0.0162651
0.0153129
0.0156645
0.0161335
0.0166109
0.0176254
0.0215631
0.0559185
0.19088
0.266338
0.40816
0.672402
0.340205
0.151611
0.0953524
0.0601196
0.0450038
0.0349399
0.0280112
0.0225402
0.0200191
0.018428
0.0176477
0.0172677
0.0162828
0.0160161
0.0158766
0.0152501
0.0156984
0.0158196
0.0160206
0.0190541
0.0379799
0.160903
0.223001
0.331921
0.417649
0.340487
0.149355
0.0921918
0.0596969
0.0455122
0.0342412
0.029476
0.0232841
0.0203999
0.0186656
0.0174749
0.0170878
0.0162779
0.0152277
0.0151506
0.0148609
0.0152113
0.0154044
0.015319
0.0185896
0.0454092
0.159012
0.218456
0.255598
0.205799
0.339988
0.15097
0.0956537
0.0624466
0.0474742
0.0349161
0.0286339
0.0236005
0.0209763
0.0189697
0.0175677
0.0171461
0.016093
0.0149859
0.015191
0.0156746
0.0149554
0.0150275
0.0155374
0.0167789
0.0434123
0.11982
0.162273
0.226019
0.266336
0.339955
0.150853
0.0932149
0.0653793
0.0484513
0.0367752
0.0287628
0.024465
0.0213526
0.0191963
0.017816
0.0171542
0.0158488
0.0159691
0.0160755
0.0161077
0.015623
0.0145925
0.0154231
0.0170156
0.0452663
0.0856522
0.141491
0.205814
0.351723
0.339866
0.151238
0.0925829
0.0654553
0.048735
0.0365914
0.0296616
0.024803
0.0221162
0.0197036
0.0180436
0.0172483
0.0162747
0.0147963
0.0149251
0.015037
0.0147367
0.0140788
0.0143155
0.0182867
0.0426836
0.0754766
0.14193
0.212094
0.357953
0.340093
0.148484
0.0925966
0.0646696
0.048151
0.0378025
0.0299115
0.0251917
0.0223394
0.0200276
0.018134
0.0174204
0.0162935
0.0150291
0.0138072