/*--------------------------------*- C++ -*----------------------------------*\
  =========                 |
  \\      /  F ield         | OpenFOAM: The Open Source CFD Toolbox
   \\    /   O peration     | Website:  https://openfoam.org
    \\  /    A nd           | Version:  11
     \\/     M anipulation  |
\*---------------------------------------------------------------------------*/
FoamFile
{
    format      ascii;
    class       volScalarField;
    location    "35";
    object      p;
}
// * * * * * * * * * * * * * * * * * * * * * * * * * * * * * * * * * * * * * //

dimensions      [0 2 -2 0 0 0 0];

internalField   nonuniform List<scalar> 
17196
(
36.0771
35.92
35.4031
34.1853
32.3157
30.0609
27.5301
25.066
22.9159
20.9767
19.202
17.599
15.985
14.141
11.9869
10.011
8.92071
8.58869
9.30393
10.86
12.5234
12.8402
10.9396
6.83218
1.59629
36.0101
35.8859
35.3816
34.1116
32.2188
30.0218
27.612
25.2201
23.0231
20.9917
19.0738
17.2994
15.4766
13.3465
10.8539
8.69882
7.34965
6.70486
7.02512
8.2025
9.78718
10.5389
9.31251
4.98188
0.885672
35.8833
35.7778
35.2613
33.9328
32.0533
29.9409
27.6473
25.3437
23.1406
21.0292
18.9998
17.0927
15.1231
12.767
9.86687
7.49366
5.90366
4.99247
4.94846
5.75305
7.21753
8.5701
8.22203
3.62216
0.0853259
35.6944
35.5911
35.0584
33.6968
31.8333
29.7802
27.5769
25.3539
23.1726
21.001
18.8657
16.805
14.6469
12.043
8.82979
6.30763
4.57832
3.53598
3.3374
4.10869
5.84779
7.91505
8.14873
2.75318
-0.801255
35.4533
35.3416
34.8071
33.4414
31.5831
29.5628
27.4311
25.2899
23.1421
20.9417
18.7419
16.5693
14.2551
11.44
8.02651
5.39277
3.59202
2.49053
2.22341
3.11797
5.37615
8.27737
8.75382
2.4901
-1.77994
35.1788
35.0539
34.5324
33.1868
31.3285
29.3174
27.2382
25.1647
23.054
20.8572
18.6417
16.4087
13.9808
11.0195
7.51732
4.76807
2.92947
1.80201
1.44925
2.34078
5.0032
8.76872
9.42411
2.33689
-2.71537
34.8862
34.7499
34.2476
32.9544
31.0962
29.0787
27.0313
24.9994
22.9216
20.7569
18.5795
16.3491
13.86
10.8409
7.33859
4.50054
2.63667
1.50131
1.06683
1.74886
4.36569
8.59703
9.67328
2.19891
-3.31136
34.5896
34.444
33.9616
32.7486
30.9146
28.8737
26.8324
24.8142
22.7484
20.6325
18.5393
16.3724
13.8784
10.8812
7.43574
4.57318
2.68582
1.5208
1.00552
1.40321
3.54326
7.48457
8.75701
1.39713
-3.66698
34.2985
34.1483
33.6845
32.5644
30.7965
28.7464
26.6768
24.6364
22.5627
20.4915
18.501
16.4411
13.9981
11.0825
7.74805
4.9023
2.96478
1.72753
1.06814
1.17062
2.70583
5.79881
6.60456
-0.110575
-3.50482
34.0215
33.8685
33.4224
32.3967
30.7224
28.6943
26.6124
24.5251
22.3862
20.3332
18.4519
16.4971
14.1285
11.3432
8.19462
5.41449
3.39249
2.0167
1.13716
0.87764
1.80325
4.05194
4.1841
-1.64149
-4.03216
33.7627
33.6108
33.1813
32.2426
30.6813
28.7037
26.6301
24.513
22.3107
20.1964
18.4048
16.4969
14.2152
11.5701
8.63469
5.96119
3.84366
2.25073
1.07792
0.414514
0.842185
2.70136
2.58356
-2.92939
-4.41541
33.526
33.3768
32.963
32.0993
30.6576
28.758
26.7139
24.5918
22.3606
20.1962
18.3743
16.4443
14.2676
11.7763
9.04697
6.49639
4.28914
2.41508
0.856599
-0.266773
-0.258557
1.35959
1.04457
-4.5125
-5.00376
33.3123
33.1683
32.7693
31.967
30.6429
28.8475
26.8514
24.7479
22.5171
20.3081
18.392
16.435
14.3139
11.956
9.41877
7.00693
4.77574
2.67074
0.742173
-0.847249
-1.37521
-0.509917
-1.4074
-5.93092
-5.39238
33.1223
32.9836
32.5993
31.8463
30.6286
28.9525
27.0237
24.9602
22.7525
20.5134
18.4858
16.4679
14.3625
12.102
9.69932
7.41752
5.23575
3.03381
0.847391
-1.11113
-2.09983
-2.00252
-3.32191
-6.60498
-5.616
32.9546
32.8227
32.4537
31.7409
30.6111
29.0559
27.2146
25.2085
23.0452
20.7996
18.6714
16.5644
14.4161
12.2041
9.8736
7.67598
5.58711
3.42329
1.12484
-1.05484
-2.38494
-2.90068
-4.45391
-6.57665
-4.9039
32.8086
32.6835
32.3294
31.6514
30.5936
29.1469
27.3997
25.4643
23.3659
21.1416
18.9463
16.7456
14.5104
12.2841
10.0016
7.86479
5.85923
3.80541
1.55659
-0.694688
-2.28093
-3.30294
-4.8478
-6.10995
-4.28375
32.6828
32.5651
32.2254
31.5778
30.5818
29.2255
27.5665
25.7088
23.6853
21.5075
19.2846
17.0088
14.6643
12.3592
10.0939
8.0122
6.06161
4.10895
2.00662
-0.186552
-1.96176
-3.40298
-4.78898
-5.48425
-3.81013
32.5759
32.4655
32.1399
31.5191
30.577
29.2902
27.7096
25.928
23.9789
21.8617
19.6369
17.3167
14.8837
12.457
10.138
8.10955
6.19686
4.31585
2.3763
0.322374
-1.56724
-3.2761
-4.50682
-4.94221
-3.37618
32.4863
32.3837
32.0719
31.477
30.58
29.3449
27.8331
26.1232
24.2418
22.184
19.9712
17.6131
15.1299
12.5977
10.1663
8.12616
6.23977
4.41736
2.62614
0.743752
-1.14605
-2.99218
-4.15747
-4.46436
-2.96799
32.4131
32.3182
32.0205
31.45
30.5881
29.3985
27.9459
26.2966
24.4743
22.4656
20.2662
17.8764
15.3395
12.7277
10.229
8.11692
6.20893
4.43159
2.77755
1.06186
-0.725068
-2.62377
-3.81382
-4.06426
-2.58782
32.3545
32.2662
31.9828
31.4354
30.6006
29.4539
28.0502
26.4492
24.6785
22.7086
20.5102
18.1
15.5168
12.8259
10.2806
8.12326
6.1843
4.42712
2.85333
1.25994
-0.36701
-2.20357
-3.4719
-3.73861
-2.26161
32.3088
32.2272
31.9574
31.4337
30.623
29.5115
28.1427
26.5778
24.8487
22.907
20.7048
18.2788
15.6651
12.9293
10.3556
8.15821
6.19542
4.44701
2.90514
1.36461
-0.157002
-1.78868
-3.13103
-3.49648
-2.07303
32.2759
32.1979
31.937
31.4352
30.6537
29.5724
28.2279
26.6861
24.9809
23.0505
20.8487
18.4197
15.7949
13.0501
10.4661
8.23702
6.25077
4.50549
2.97382
1.42886
-0.0834904
-1.50905
-2.81188
-3.31872
-2.17451
32.2492
32.1751
31.9205
31.432
30.6781
29.6294
28.3058
26.7724
25.0695
23.1434
20.9578
18.5408
15.9223
13.1894
10.6013
8.34421
6.33974
4.59723
3.0854
1.5274
-0.0525606
-1.45565
-2.63488
-3.2575
-2.10533
32.2239
32.1523
31.9062
31.4241
30.687
29.6644
28.3593
26.8312
25.1297
23.2149
21.049
18.6429
16.029
13.3059
10.7148
8.43877
6.42074
4.70286
3.21337
1.64466
-0.0435856
-1.50222
-2.59975
-3.3965
-2.06007
36.2769
36.1467
35.7405
34.5341
32.7111
30.5614
28.1532
25.7405
23.4754
21.2943
19.1439
16.9923
14.5968
11.749
8.77874
6.37464
4.50308
3.09505
2.46833
2.66398
3.55901
4.14858
3.63891
1.38156
-0.373042
36.1588
36.0891
35.6871
34.4136
32.5535
30.427
28.0879
25.7156
23.3916
21.0766
18.7202
16.3302
13.7175
10.6004
7.367
4.88027
2.86424
1.24707
0.384045
0.328228
1.16999
2.19901
2.23849
-0.305258
-1.56858
35.9883
35.9471
35.5199
34.1965
32.3427
30.2898
28.0481
25.7471
23.4294
21.0533
18.5911
16.0677
13.3259
10.0965
6.82053
4.39474
2.42911
0.844705
-0.0207277
-0.177191
0.484082
1.51808
1.84018
-1.34862
-2.59178
35.765
35.7211
35.2738
33.9309
32.0757
30.0713
27.9112
25.6721
23.3754
20.9593
18.3957
15.7133
12.7963
9.42104
6.19258
3.88866
2.05313
0.579098
-0.200112
-0.232051
0.501202
1.74045
2.33542
-1.90043
-3.35333
35.5002
35.4387
34.9917
33.6537
31.7957
29.8244
27.7378
25.5646
23.3028
20.881
18.268
15.4896
12.462
8.98946
5.82205
3.58657
1.87254
0.480715
-0.304638
-0.240507
0.869372
2.79254
3.75942
-1.8388
-3.74725
35.21
35.1275
34.6892
33.39
31.5287
29.5656
27.5359
25.4318
23.2153
20.8096
18.1974
15.3865
12.3041
8.7889
5.64878
3.44059
1.836
0.535873
-0.305046
-0.343627
1.01331
3.98148
5.58571
-1.71323
-5.30874
34.908
34.8075
34.3804
33.1573
31.2968
29.3178
27.3263
25.2833
23.1117
20.7362
18.1765
15.4086
12.3366
8.83998
5.68389
3.50812
2.00741
0.822897
-0.0400342
-0.259101
0.959293
4.55744
7.00334
-1.67176
-7.38179
34.6064
34.4914
34.0747
32.9476
31.1258
29.1119
27.1275
25.1221
22.9777
20.643
18.1787
15.5164
12.5186
9.08655
5.91744
3.77894
2.35699
1.26282
0.38716
-0.00039418
0.823956
4.25337
7.20599
-2.0173
-9.03821
34.3137
34.1892
33.7811
32.7533
31.0174
28.9837
26.9733
24.9672
22.8271
20.5317
18.1805
15.6518
12.7815
9.46182
6.30918
4.16191
2.72545
1.5932
0.624082
0.033903
0.417295
3.13938
5.88134
-3.21811
-7.06896
34.0371
33.9068
33.5063
32.571
30.9483
28.9372
26.8966
24.8555
22.6911
20.419
18.1759
15.7794
13.0645
9.90416
6.79977
4.55536
3.00474
1.77042
0.62735
-0.301362
-0.376601
1.8057
3.68941
-4.6075
-7.30903
33.7803
33.6483
33.2565
32.3998
30.8996
28.9498
26.9072
24.8262
22.6167
20.3458
18.1786
15.8967
13.3359
10.3681
7.3517
4.96142
3.19629
1.77275
0.395957
-0.895256
-1.30314
0.795317
1.9237
-6.75115
-7.62601
33.5462
33.4146
33.0332
32.2399
30.8597
29.0015
26.9855
24.8922
22.6471
20.346
18.1905
15.9977
13.5698
10.8086
7.93379
5.46572
3.47124
1.77744
0.13066
-1.53835
-2.31933
-0.592783
0.0256598
-8.43275
-7.1831
33.3354
33.2064
32.8364
32.0937
30.8229
29.0766
27.1159
25.0333
22.7867
20.4526
18.2449
16.087
13.7628
11.1945
8.46548
6.00778
3.87228
1.92283
-1.82542e-05
-2.04837
-3.4001
-2.6588
-2.76673
-9.33172
-6.57475
33.1479
33.0227
32.6641
31.962
30.7859
29.1581
27.2766
25.2326
23.0069
20.6677
18.3817
16.1757
13.922
11.5283
8.90624
6.51609
4.33125
2.22524
0.0777114
-2.30497
-4.19419
-4.25855
-4.51992
-8.65527
-5.69078
32.9826
32.8628
32.5152
31.847
30.7494
29.2338
27.4454
25.4671
23.2883
20.9649
18.6244
16.2935
14.0766
11.783
9.24643
6.9526
4.8095
2.65354
0.367184
-2.24851
-4.52996
-5.21892
-5.42638
-7.54773
-5.0095
32.8386
32.7244
32.3887
31.7498
30.7158
29.2973
27.6051
25.7061
23.6
21.3138
18.944
16.5168
14.2457
11.9462
9.4917
7.28579
5.24735
3.13985
0.801738
-1.8839
-4.40262
-5.65298
-5.8768
-7.09005
-4.60101
32.7139
32.606
32.283
31.6699
30.6922
29.3552
27.7472
25.927
23.9085
21.6773
19.301
16.8248
14.4592
12.1069
9.68211
7.51286
5.57773
3.58062
1.29751
-1.3405
-3.97751
-5.65737
-5.97989
-6.59169
-4.14636
32.6075
32.5057
32.1947
31.6052
30.6814
29.4155
27.8705
26.1224
24.1881
22.0186
19.6586
17.1686
14.7273
12.3008
9.85308
7.66401
5.78599
3.92564
1.77641
-0.763614
-3.42796
-5.34552
-5.7853
-6.02461
-3.84737
32.5181
32.4227
32.1225
31.5571
30.6819
29.473
27.9809
26.3002
24.4329
22.3212
19.9976
17.5158
15.0263
12.5277
10.0197
7.76776
5.87493
4.13573
2.16507
-0.232832
-2.84357
-4.87897
-5.48302
-5.52627
-3.6655
32.4438
32.3551
32.0643
31.5249
30.6915
29.5245
28.0843
26.4618
24.6428
22.583
20.3057
17.8443
15.3227
12.7581
10.1828
7.86587
5.89824
4.215
2.4247
0.206911
-2.25214
-4.33268
-5.14776
-5.11886
-3.23418
32.3835
32.3018
32.0195
31.5094
30.7082
29.5717
28.1791
26.6024
24.8238
22.8142
20.5785
18.141
15.592
12.9572
10.3325
7.96961
5.9242
4.23156
2.57675
0.552445
-1.72476
-3.75455
-4.77246
-4.77087
-2.83839
32.3362
32.2604
31.988
31.5121
30.7302
29.6084
28.2535
26.7175
24.9833
23.0171
20.8127
18.3955
15.8199
13.1237
10.4716
8.07703
5.97207
4.22202
2.64295
0.818292
-1.28075
-3.18953
-4.38863
-4.52146
-2.58787
32.302
32.2314
31.967
31.5189
30.7626
29.6545
28.3211
26.815
25.1166
23.1803
20.9957
18.5906
15.9955
13.2645
10.6029
8.19189
6.04362
4.21517
2.6485
0.958858
-0.926312
-2.68669
-4.051
-4.44859
-2.49258
32.2779
32.2093
31.9521
31.5041
30.779
29.7077
28.3943
26.9018
25.2168
23.2968
21.1262
18.7264
16.1242
13.3916
10.7329
8.31532
6.14382
4.25962
2.64454
0.981109
-0.757739
-2.35769
-3.80466
-4.74613
-2.64233
32.2543
32.1889
31.9439
31.4834
30.7718
29.7396
28.447
26.9589
25.2725
23.3604
21.2042
18.8146
16.22
13.501
10.8496
8.43165
6.25359
4.35612
2.68863
0.974381
-0.749259
-2.20026
-3.3318
-5.11393
-4.42622
36.4203
36.339
36.0563
34.9306
33.2062
31.2088
28.964
26.6619
24.344
21.9247
19.3615
16.6626
13.7399
10.4678
7.14971
4.27374
1.6583
-0.598165
-2.23879
-3.0331
-2.54512
-1.5842
-1.39158
-2.45411
-1.69537
36.2815
36.2537
35.9493
34.7383
32.9407
30.9234
28.7163
26.4372
24.0586
21.4992
18.7516
15.8835
12.8868
9.58445
6.20277
3.35881
0.812042
-1.37962
-2.99554
-3.99431
-3.85291
-3.03003
-2.81141
-4.27107
-2.46879
36.0857
36.0767
35.7376
34.4779
32.6616
30.694
28.5751
26.3472
23.9866
21.4209
18.6533
15.7756
12.7748
9.46784
6.21009
3.55528
1.21374
-0.751264
-2.1806
-3.31214
-3.76327
-3.37279
-3.50136
-5.35174
-3.14088
35.8439
35.8243
35.4662
34.1921
32.363
30.4179
28.3542
26.172
23.8346
21.2608
18.4545
15.5148
12.4464
9.08145
5.95619
3.50702
1.38154
-0.415829
-1.71698
-2.67561
-3.3915
-2.98823
-3.19533
-5.9374
-4.34486
35.5679
35.5269
35.1626
33.9087
32.0752
30.1352
28.1116
25.9819
23.6777
21.1037
18.2767
15.2965
12.1986
8.81302
5.78411
3.50927
1.54616
-0.161513
-1.48709
-2.34188
-2.83548
-2.04092
-1.73178
-6.19332
-5.84725
35.2723
35.208
34.8404
33.6477
31.8155
29.867
27.8764
25.7974
23.5281
20.9628
18.1369
15.1428
12.0328
8.66063
5.70339
3.6015
1.75612
0.0889917
-1.2895
-2.2041
-2.34369
-0.895985
0.346571
-6.45762
-8.30821
34.9693
34.8849
34.5147
33.4114
31.6069
29.634
27.663
25.63
23.3909
20.8453
18.0537
15.094
11.996
8.66034
5.75384
3.80742
2.08648
0.487377
-0.889495
-1.87447
-2.00794
0.0293326
2.05806
-7.05694
-12.2809
34.6696
34.5691
34.1981
33.1911
31.4559
29.4591
27.4822
25.4743
23.2612
20.7446
18.0188
15.1497
12.1021
8.81223
5.93989
4.08298
2.49167
0.966978
-0.41394
-1.50432
-1.85993
0.284425
2.87871
-6.7255
-14.6855
34.3809
34.2693
33.9
32.9817
31.3483
29.3585
27.3618
25.3466
23.1437
20.6619
18.0175
15.2757
12.3276
9.09915
6.23154
4.37299
2.82188
1.29949
-0.167678
-1.484
-2.15799
-0.564037
2.06594
-5.65666
-17.6525
34.1093
33.9903
33.6246
32.782
31.2654
29.3186
27.3161
25.2798
23.0603
20.5999
18.0346
15.434
12.6181
9.48607
6.59822
4.62696
2.95615
1.3215
-0.363079
-1.95994
-2.80191
-1.45708
0.235359
-8.05056
-16.3913
33.858
33.7356
33.3748
32.5955
31.197
29.3253
27.3355
25.2888
23.0542
20.5937
18.0722
15.6004
12.9086
9.91591
7.02066
4.86463
3.03848
1.25606
-0.651074
-2.36907
-3.07933
-1.58023
-0.673621
-9.12689
-12.9217
33.6291
33.5055
33.1509
32.4231
31.1364
29.3626
27.4071
25.3628
23.1303
20.6813
18.1783
15.7558
13.1393
10.3312
7.47156
5.15137
3.18856
1.27356
-0.790836
-2.7034
-3.52126
-2.27899
-1.75017
-9.62633
-9.453
33.4228
33.3013
32.9535
32.2651
31.0802
29.4179
27.5184
25.4913
23.2768
20.8581
18.3618
15.9181
13.3625
10.6937
7.90995
5.49012
3.39975
1.37441
-0.769155
-2.97149
-4.37359
-3.70653
-3.85501
-11.2869
-9.84075
33.2392
33.1204
32.7816
32.1239
31.0244
29.4763
27.6524
25.6605
23.4823
21.1069
18.6174
16.122
13.61
11.0268
8.31736
5.87047
3.6855
1.5855
-0.608796
-3.09033
-5.04561
-4.76541
-5.03187
-11.8342
-7.82956
33.0768
32.9624
32.6335
32.0044
30.9704
29.5245
27.7898
25.8545
23.7291
21.407
18.9348
16.3928
13.8978
11.3546
8.68217
6.26089
4.03643
1.88947
-0.322421
-2.9448
-5.35404
-5.50632
-5.26591
-10.8334
-4.73897
32.9347
32.8256
32.506
31.9044
30.924
29.5623
27.9167
26.0531
23.9941
21.7307
19.2853
16.7196
14.2189
11.6824
9.01913
6.62437
4.421
2.25461
0.0443448
-2.5627
-5.29801
-6.00256
-5.63271
-9.18327
-4.85168
32.8112
32.7077
32.3986
31.8213
30.8882
29.5987
28.0313
26.243
24.2579
22.0546
19.6431
17.0775
14.5558
12.0067
9.35014
6.93831
4.77062
2.6358
0.444937
-2.07478
-5.00811
-6.24804
-5.98588
-7.80954
-4.28958
32.7051
32.6078
32.3087
31.754
30.8648
29.6374
28.1322
26.4135
24.5028
22.3616
19.9902
17.4398
14.896
12.3252
9.6741
7.21262
5.04103
2.9675
0.832408
-1.5853
-4.54414
-6.19326
-6.1979
-6.766
-3.96576
32.615
32.525
32.2339
31.7024
30.8576
29.6801
28.2199
26.5621
24.72
22.6423
20.3177
17.79
15.2289
12.6306
9.96475
7.4473
5.22603
3.2006
1.14847
-1.16309
-3.9892
-5.98519
-6.39278
-6.32921
-3.7608
32.5407
32.4571
32.1737
31.6664
30.8662
29.7243
28.298
26.6936
24.9116
22.8927
20.6156
18.114
15.5395
12.9071
10.2067
7.64185
5.35178
3.33341
1.36367
-0.817267
-3.42372
-5.6193
-6.4018
-6.14222
-3.95311
32.4802
32.402
32.1252
31.6485
30.8839
29.7571
28.3645
26.8163
25.0885
23.1159
20.8789
18.4043
15.8162
13.1408
10.403
7.79935
5.44832
3.39623
1.46585
-0.579885
-2.93364
-5.13836
-6.22811
-6.1049
-4.20601
32.433
32.3604
32.0893
31.6522
30.9117
29.776
28.4176
26.9298
25.2479
23.3075
21.1048
18.6567
16.0524
13.3307
10.5639
7.93621
5.5341
3.41826
1.4933
-0.447503
-2.58227
-4.65991
-6.03472
-6.1096
-3.68732
32.4001
32.3292
32.061
31.6523
30.9441
29.8075
28.4718
27.0238
25.375
23.4613
21.2871
18.8643
16.246
13.487
10.7066
8.0666
5.62793
3.449
1.50839
-0.388513
-2.36862
-4.30066
-5.84675
-6.18297
-3.43291
32.3724
32.3061
32.0412
31.6276
30.9535
29.8577
28.5371
27.0991
25.4692
23.5789
21.4206
19.0153
16.3936
13.6161
10.8315
8.18467
5.72539
3.50875
1.53186
-0.358895
-2.2241
-4.00239
-5.60407
-6.54688
-4.26227
32.3475
32.2842
32.0343
31.6008
30.9333
29.8872
28.5837
27.1455
25.5228
23.6445
21.4938
19.1019
16.4925
13.7183
10.9353
8.28828
5.82497
3.59718
1.59535
-0.302448
-2.08773
-3.67662
-5.26196
-6.7277
-5.72461
36.374
36.3433
36.1381
35.1289
33.5211
31.6715
29.5844
27.3562
25.0061
22.4423
19.6328
16.6545
13.5262
10.1057
6.62769
3.50507
0.599318
-1.94052
-3.92333
-5.1534
-5.26118
-4.71161
-5.02162
-5.59156
-2.77447
36.2464
36.2471
36.017
34.9343
33.2239
31.3043
29.2173
26.9976
24.5897
21.8924
18.9271
15.8457
12.739
9.40959
5.92206
2.80256
0.0360176
-2.35744
-4.26515
-5.63029
-6.22373
-6.05208
-6.29413
-6.60132
-2.90821
36.061
36.0618
35.8064
34.6833
32.9282
31.0075
28.9758
26.8029
24.4028
21.7023
18.7614
15.7513
12.7335
9.43352
5.90821
2.95608
0.417455
-1.7766
-3.50824
-4.91632
-6.1135
-6.53458
-7.08711
-7.4506
-3.95716
35.8313
35.8158
35.5391
34.416
32.6459
30.7222
28.7203
26.5846
24.1981
21.5001
18.5682
15.5765
12.5812
9.2508
5.66596
2.91616
0.590163
-1.45598
-3.00403
-4.20109
-5.67586
-6.55557
-7.31843
-8.50016
-5.02641
35.5696
35.533
35.238
34.1549
32.3822
30.4525
28.4744
26.3741
24.0066
21.31
18.386
15.4132
12.4488
9.14925
5.57041
2.96411
0.808727
-1.18316
-2.77494
-3.91747
-5.2801
-6.21354
-6.90922
-9.89449
-6.16666
35.2897
35.2309
34.9223
33.9055
32.1568
30.2151
28.2513
26.183
23.8389
21.1521
18.2444
15.2996
12.3667
9.15615
5.66207
3.21093
1.21132
-0.792496
-2.52709
-3.82358
-4.99332
-5.65747
-6.21679
-10.9546
-7.02332
35.0031
34.925
34.6081
33.666
31.9798
30.0305
28.0661
26.017
23.7013
21.0417
18.1661
15.272
12.3707
9.24291
5.88965
3.57959
1.62722
-0.404679
-2.22816
-3.68467
-4.88491
-5.091
-5.50922
-11.4229
-7.37856
34.7201
34.6263
34.305
33.4319
31.8408
29.9075
27.9383
25.8897
23.5933
20.9703
18.1389
15.3242
12.4648
9.37151
6.16765
3.94354
1.99118
-0.0166969
-1.89204
-3.58901
-4.9135
-4.65311
-5.27592
-10.9619
-9.6389
34.4475
34.3434
34.0192
33.2057
31.7269
29.8359
27.869
25.822
23.5417
20.9487
18.159
15.4304
12.6105
9.54025
6.44659
4.24885
2.24929
0.248736
-1.76637
-3.86441
-5.20871
-5.15482
-5.64964
-9.25312
-17.9182
34.1909
34.0803
33.753
32.9939
31.6257
29.803
27.8524
25.8123
23.5475
20.988
18.2504
15.5681
12.7564
9.75397
6.74104
4.49383
2.39758
0.241286
-1.9607
-4.28354
-5.33576
-5.22182
-5.71023
-14.3289
-66.3259
33.953
33.8401
33.5102
32.7987
31.532
29.7969
27.885
25.8608
23.6139
21.0853
18.3899
15.7333
12.935
9.99528
7.05806
4.7228
2.55564
0.304902
-2.01555
-4.39203
-5.29316
-5.14275
-5.52204
-10.7935
-38.6021
33.7359
33.6227
33.2925
32.6198
31.4449
29.807
27.9527
25.9565
23.7343
21.242
18.5875
15.9447
13.1675
10.2779
7.39776
4.96701
2.72655
0.43983
-1.96635
-4.40006
-5.70634
-6.21754
-6.57575
-8.79886
-7.18855
33.5395
33.4282
33.0999
32.457
31.3659
29.8295
28.0416
26.0826
23.8985
21.4582
18.8494
16.2067
13.4579
10.62
7.76558
5.24751
2.91041
0.580913
-1.83119
-4.31907
-6.0489
-7.15724
-7.96026
-9.29743
-5.29862
33.3638
33.2552
32.9323
32.3132
31.2934
29.8552
28.1367
26.2212
24.0905
21.7205
19.1626
16.5135
13.7898
11.002
8.15564
5.57088
3.15006
0.776649
-1.59117
-4.16249
-6.05779
-7.17036
-8.49834
-8.86914
-4.49116
33.2076
33.1021
32.7868
32.1938
31.2308
29.8772
28.2289
26.3646
24.2985
22.0075
19.5039
16.8575
14.1603
11.4004
8.54615
5.91428
3.43652
1.02851
-1.27863
-3.87263
-6.0356
-6.65146
-7.99277
-9.76529
-4.6409
33.07
32.9682
32.6607
32.0933
31.1768
29.8954
28.3185
26.5126
24.5104
22.2948
19.8516
17.2245
14.552
11.8063
8.94036
6.25572
3.74782
1.34017
-0.928115
-3.48575
-5.93483
-6.45633
-7.74458
-10.4641
-4.39963
32.9492
32.8532
32.5553
32.008
31.1285
29.9113
28.4085
26.6652
24.7213
22.5733
20.1938
17.5981
14.9417
12.1978
9.32258
6.58265
4.04235
1.64186
-0.588525
-3.05786
-5.73325
-6.63925
-7.82865
-9.61772
-4.04425
32.8447
32.754
32.4679
31.9387
31.0901
29.929
28.4917
26.8079
24.9253
22.8429
20.522
17.9592
15.31
12.5597
9.67553
6.89046
4.30882
1.90261
-0.299396
-2.65261
-5.43349
-6.85882
-7.95118
-8.95309
-4.29897
32.7554
32.6708
32.3948
31.8848
31.0746
29.9548
28.5527
26.9226
25.116
23.1053
20.8322
18.2962
15.6504
12.8864
9.98631
7.1622
4.52897
2.101
-0.0945371
-2.34032
-5.08514
-6.99184
-8.15166
-8.62897
-5.01208
32.6795
32.6008
32.3315
31.848
31.0893
29.9866
28.5855
27.0126
25.2971
23.3536
21.1141
18.5995
15.9566
13.1761
10.2525
7.38955
4.70018
2.23177
0.0180802
-2.1405
-4.72549
-6.98979
-8.25211
-8.45735
-5.10786
32.6165
32.542
32.2774
31.8283
31.1244
30.0122
28.6053
27.1049
25.4749
23.574
21.3551
18.8653
16.2239
13.424
10.4738
7.57509
4.83313
2.30831
0.0428653
-2.0659
-4.45149
-6.80023
-8.22587
-8.47952
-5.78042
32.5659
32.4929
32.2318
31.8225
31.158
30.0289
28.6374
27.2053
25.6264
23.7513
21.5566
19.095
16.4532
13.6311
10.6612
7.73428
4.94844
2.36181
0.0306097
-2.07547
-4.30194
-6.55129
-8.15278
-8.6245
-6.41353
32.5282
32.4631
32.2019
31.8107
31.1771
30.068
28.7074
27.3001
25.731
23.8806
21.7224
19.2891
16.642
13.7937
10.8151
7.87009
5.04771
2.40611
0.0143977
-2.12673
-4.23522
-6.36858
-8.08171
-8.63619
-5.86394
32.5047
32.444
32.1866
31.7743
31.1592
30.1212
28.7998
27.3778
25.7991
23.9668
21.8416
19.4363
16.7852
13.9155
10.9359
7.98448
5.1385
2.46312
0.0248082
-2.15486
-4.17604
-6.18492
-7.92257
-8.6402
-6.22052
32.4825
32.4233
32.1781
31.7509
31.1287
30.1518
28.8591
27.4206
25.8367
24.0118
21.901
19.5187
16.8761
14.001
11.0233
8.07478
5.22397
2.53757
0.0782157
-2.12031
-4.07718
-5.93479
-7.6769
-8.73265
-7.15584
36.1969
36.1809
36.0074
35.1366
33.6851
31.9788
30.0502
27.9182
25.575
22.9312
19.9358
16.7173
13.4603
10.0089
6.33747
2.88053
-0.241448
-2.91018
-5.06775
-6.51964
-6.85796
-6.89469
-7.82393
-8.06229
-4.66773
36.0876
36.0867
35.9069
34.9973
33.4521
31.6623
29.6925
27.5419
25.1352
22.3572
19.222
15.9447
12.7709
9.42448
5.78595
2.27076
-0.756236
-3.2561
-5.27733
-6.81298
-7.59802
-8.12553
-8.84919
-8.8098
-5.28599
35.9294
35.923
35.726
34.8023
33.2026
31.3708
29.4167
27.3032
24.8908
22.0856
18.9838
15.8035
12.7697
9.46602
5.73686
2.21739
-0.657956
-2.94378
-4.74445
-6.375
-7.87661
-8.92193
-9.44314
-9.23321
-5.98463
35.7308
35.7096
35.4901
34.5856
32.9625
31.1012
29.1625
27.0861
24.6786
21.8728
18.8159
15.7036
12.7717
9.4788
5.57699
2.08769
-0.67524
-2.78993
-4.27632
-5.72267
-7.72225
-9.16525
-9.37254
-9.402
-6.02346
35.502
35.4628
35.2229
34.3607
32.7486
30.8615
28.9358
26.8842
24.4858
21.6911
18.6727
15.6219
12.7595
9.58059
5.58773
2.20863
-0.412243
-2.54247
-4.06215
-5.35252
-7.28417
-8.84941
-8.75885
-9.88227
-6.09751
35.255
35.1969
34.9414
34.1287
32.5676
30.6739
28.7491
26.7015
24.3171
21.5494
18.5663
15.583
12.7585
9.79335
5.82171
2.63346
0.135145
-2.088
-3.77782
-5.20711
-6.81579
-8.17693
-8.21029
-10.434
-6.08739
35.0004
34.9261
34.6609
33.8906
32.4102
30.5435
28.618
26.5664
24.2007
21.4755
18.5397
15.6267
12.7961
9.88918
6.09472
3.09661
0.609958
-1.68254
-3.46158
-5.20217
-6.72296
-7.6061
-7.68895
-10.6894
-6.18655
34.7473
34.6602
34.3868
33.6518
32.2693
30.4576
28.5386
26.4867
24.1486
21.4762
18.5939
15.7152
12.8621
9.90201
6.33679
3.5013
0.987781
-1.37826
-3.3078
-5.24245
-6.84367
-7.28024
-7.2748
-10.4313
-5.89808
34.5021
34.4069
34.1231
33.425
32.1431
30.4039
28.5042
26.4623
24.1543
21.5321
18.7035
15.8561
12.9702
9.9428
6.56359
3.81993
1.28828
-1.16569
-3.28709
-5.4168
-6.87786
-6.95615
-7.35887
-8.75705
-3.83002
34.2698
34.1685
33.8756
33.2164
32.0248
30.3685
28.5048
26.4842
24.2101
21.6393
18.8646
16.0472
13.1403
10.0726
6.81913
4.09742
1.53906
-1.01011
-3.30489
-5.58248
-6.91815
-7.0036
-7.05167
-5.95944
-4.00499
34.0529
33.9487
33.6512
33.0261
31.9098
30.3424
28.5353
26.5483
24.3153
21.7995
19.0738
16.2807
13.3784
10.3017
7.11205
4.34589
1.74383
-0.853384
-3.25145
-5.71692
-7.31499
-7.35486
-6.67515
-3.12732
7.45444
33.8537
33.748
33.4495
32.8524
31.8019
30.3201
28.5825
26.6442
24.4588
21.9997
19.3232
16.5498
13.6704
10.6196
7.4549
4.59562
1.91478
-0.69615
-3.1589
-5.72806
-7.82568
-8.15644
-7.39725
-4.17382
3.0775
33.6723
33.568
33.2707
32.6947
31.7022
30.3035
28.6414
26.7606
24.6266
22.2253
19.6049
16.8562
14.0041
10.9861
7.83084
4.89275
2.09703
-0.573037
-3.04219
-5.50067
-7.6465
-8.63883
-7.99535
-5.62148
0.760151
33.509
33.4071
33.1137
32.555
31.6106
30.2922
28.7063
26.8822
24.8015
22.4663
19.9116
17.1951
14.3707
11.3821
8.2251
5.22696
2.33666
-0.420185
-2.87565
-5.24822
-7.26316
-8.55031
-8.18864
-6.82208
-1.99649
33.3627
33.2646
32.9756
32.434
31.5327
30.2896
28.774
27.0001
24.9763
22.717
20.2326
17.5528
14.7572
11.7968
8.63244
5.56946
2.60893
-0.217048
-2.65765
-5.03192
-7.0723
-8.29714
-8.13587
-8.43131
-3.96793
33.233
33.1395
32.8543
32.3291
31.4713
30.295
28.8402
27.1102
25.144
22.9656
20.5565
17.918
15.1507
12.2156
9.05279
5.92302
2.89793
0.0342019
-2.40381
-4.77704
-7.02131
-8.43118
-8.45626
-11.3949
-5.49049
33.1188
33.0305
32.7505
32.2427
31.4248
30.3006
28.8996
27.215
25.3069
23.2087
20.878
18.2859
15.5405
12.6168
9.4571
6.2679
3.18389
0.303093
-2.15618
-4.53251
-7.00009
-8.72358
-9.73399
-11.7904
-6.41953
33.019
32.9354
32.6637
32.177
31.3935
30.305
28.9432
27.3092
25.4696
23.4481
21.1864
18.6376
15.9098
12.9862
9.81949
6.59604
3.46358
0.541478
-1.95608
-4.30064
-6.95795
-8.99904
-10.7672
-12.1777
-6.72989
32.9326
32.8543
32.589
32.127
31.3873
30.3235
28.9661
27.378
25.6298
23.6882
21.4779
18.9603
16.2466
13.3174
10.1308
6.89478
3.71143
0.717165
-1.85637
-4.17037
-6.89566
-9.44229
-11.4493
-12.1347
-7.57503
32.8604
32.7853
32.5219
32.0894
31.4105
30.3629
28.9775
27.4263
25.7807
23.9176
21.7431
19.2494
16.545
13.6064
10.3979
7.13839
3.91374
0.843441
-1.84929
-4.19911
-6.8888
-9.84959
-11.62
-12.1292
-8.16805
32.8004
32.7264
32.4654
32.0597
31.4341
30.4057
29.0013
27.4902
25.9219
24.1123
21.9665
19.504
16.8071
13.8509
10.6222
7.33194
4.07109
0.926975
-1.90534
-4.3707
-6.97731
-9.93532
-11.7898
-12.1196
-7.82679
32.7533
32.6825
32.4282
32.0393
31.4453
30.4339
29.0599
27.589
26.0452
24.2558
22.1384
19.7139
17.0292
14.0558
10.8112
7.49164
4.19298
0.977166
-1.98581
-4.58796
-7.12732
-9.89508
-11.8411
-11.9119
-7.46208
32.7212
32.6529
32.4058
32.0074
31.4298
30.4549
29.1472
27.7033
26.1478
24.3599
22.2662
19.8761
17.2048
14.2209
10.972
7.63072
4.29445
1.02011
-2.04303
-4.75859
-7.23431
-9.7927
-11.7419
-11.9008
-7.30509
32.6922
32.6333
32.3934
31.9685
31.3806
30.4691
29.2347
27.8048
26.2297
24.4397
22.3651
19.998
17.3273
14.3339
11.0943
7.74594
4.37904
1.06502
-2.06351
-4.85166
-7.30218
-9.70644
-11.5706
-11.8088
-7.5332
32.6674
32.61
32.3786
31.9562
31.3507
30.4676
29.273
27.8496
26.271
24.4866
22.4267
20.069
17.3979
14.4032
11.1755
7.8322
4.4518
1.11824
-2.03643
-4.85646
-7.27478
-9.62254
-11.5052
-11.8921
-8.41163
35.9688
35.9459
35.7884
35.0469
33.763
32.2308
30.504
28.5618
26.3343
23.7089
20.6252
17.2375
13.8283
10.3212
6.41496
2.36929
-1.40211
-4.71681
-7.48365
-9.38665
-10.2801
-11.245
-12.0665
-12.1872
-8.46435
35.8809
35.8676
35.7111
34.9715
33.6258
32.009
30.2299
28.2453
25.9454
23.1965
20.0011
16.6117
13.3226
9.87167
5.95069
1.80899
-1.97325
-5.09831
-7.70344
-9.82534
-11.1863
-12.1324
-12.5836
-12.9424
-9.88636
35.755
35.7365
35.5682
34.8428
33.4576
31.7685
29.963
27.9898
25.6739
22.8926
19.7511
16.4978
13.3264
9.89775
5.9195
1.68279
-1.98073
-4.87393
-7.4306
-9.94352
-11.6876
-12.4396
-12.6549
-13.2596
-10.1441
35.5945
35.5648
35.3771
34.6774
33.2932
31.5547
29.7281
27.7621
25.4382
22.6525
19.5705
16.3909
13.3039
9.88951
5.82203
1.5717
-1.89749
-4.53531
-6.81128
-9.40707
-11.4001
-12.1163
-12.345
-12.8532
-8.0982
35.4067
35.3638
35.1568
34.4884
33.137
31.3813
29.5398
27.563
25.2294
22.4598
19.4233
16.2774
13.2569
9.90459
5.85492
1.71841
-1.6482
-4.14755
-6.18881
-8.46078
-10.5083
-11.1946
-11.721
-12.2416
-7.31635
35.2013
35.1442
34.922
34.2797
32.9849
31.25
29.4037
27.4089
25.0786
22.3372
19.3343
16.2369
13.2827
10.0518
6.00067
1.99727
-1.3081
-3.79637
-5.61452
-7.47619
-9.19612
-9.78131
-10.9638
-11.7185
-7.3507
34.9868
34.9176
34.6846
34.0579
32.8372
31.1542
29.3122
27.307
24.9983
22.3092
19.3519
16.3078
13.3608
10.231
6.25637
2.44351
-0.824826
-3.39641
-5.16087
-6.71923
-8.12778
-8.66596
-10.4389
-11.5431
-6.47916
34.7714
34.693
34.4485
33.8344
32.6926
31.0803
29.2554
27.2582
24.9825
22.3546
19.4585
16.461
13.4921
10.3784
6.50946
2.91868
-0.342351
-3.10453
-5.03823
-6.67623
-8.01115
-8.6459
-10.1404
-11.0257
-3.84867
34.5603
34.476
34.2179
33.6246
32.5544
31.0176
29.2259
27.2599
25.0248
22.4538
19.6193
16.6562
13.6643
10.5118
6.7592
3.26245
-0.0329986
-2.99573
-5.23163
-7.21536
-8.27651
-9.00432
-9.82127
-9.80049
-1.69355
34.3582
34.2689
34.0024
33.4318
32.4185
30.957
29.2142
27.294
25.1096
22.5967
19.8209
16.8861
13.8807
10.6824
7.01332
3.51663
0.13026
-3.0066
-5.5132
-7.63401
-8.53441
-9.15038
-9.2249
-8.12697
3.81074
34.1677
34.0766
33.805
33.2549
32.2883
30.8991
29.221
27.3504
25.2227
22.7734
20.0559
17.1522
14.1455
10.9218
7.29528
3.74799
0.262713
-3.04593
-5.72456
-7.91683
-8.85415
-9.20312
-8.54635
-6.00473
11.8732
33.991
33.8995
33.6252
33.0912
32.1692
30.8469
29.2427
27.423
25.3483
22.967
20.312
17.4477
14.4611
11.2348
7.62349
3.99532
0.392349
-3.05399
-5.85776
-8.08016
-9.13771
-9.3061
-8.486
-5.40678
13.5498
33.8286
33.738
33.4652
32.9437
32.0616
30.8028
29.2733
27.51
25.4838
23.1694
20.582
17.7672
14.8143
11.6039
8.00426
4.28857
0.562973
-3.00941
-5.9675
-8.14224
-9.30801
-9.72287
-9.2778
-7.84904
6.69615
33.6809
33.5912
33.324
32.8165
31.9636
30.7652
29.3081
27.6041
25.6265
23.3757
20.8598
18.1014
15.1884
12.0088
8.41885
4.64708
0.809432
-2.88871
-5.95302
-8.16124
-9.57202
-10.3682
-10.2981
-10.6717
-1.23482
33.5472
33.4596
33.1989
32.7073
31.8768
30.7365
29.3504
27.7007
25.7714
23.5822
21.1409
18.4445
15.5757
12.4322
8.85373
5.04614
1.12329
-2.66808
-5.81993
-8.13777
-10.0217
-11.2128
-10.6665
-13.0711
-5.40059
33.4277
33.3426
33.0876
32.6094
31.8054
30.7196
29.3982
27.7957
25.9114
23.7839
21.418
18.7885
15.9667
12.8575
9.2937
5.45827
1.4889
-2.36021
-5.59856
-8.10569
-10.6194
-12.0721
-12.2864
-18.6743
-9.26309
33.3205
33.24
32.9908
32.5236
31.7516
30.7176
29.4446
27.8801
26.0404
23.9814
21.6916
19.1277
16.3475
13.2608
9.70941
5.86524
1.88465
-2.01721
-5.36444
-8.11659
-11.1906
-13.1933
-16.5768
-18.6066
-9.46972
33.226
33.1486
32.9056
32.4516
31.7167
30.7334
29.489
27.9461
26.1555
24.173
21.9582
19.4524
16.7054
13.6319
10.0941
6.26131
2.26436
-1.68953
-5.16904
-8.13185
-11.5824
-14.5373
-18.7262
-14.972
-1.15045
33.1436
33.07
32.8282
32.3909
31.7072
30.7654
29.5259
27.9912
26.2619
24.3616
22.2136
19.7578
17.0364
13.97
10.4394