/*--------------------------------*- C++ -*----------------------------------*\
  =========                 |
  \\      /  F ield         | OpenFOAM: The Open Source CFD Toolbox
   \\    /   O peration     | Website:  https://openfoam.org
    \\  /    A nd           | Version:  11
     \\/     M anipulation  |
\*---------------------------------------------------------------------------*/
FoamFile
{
    format      ascii;
    class       surfaceScalarField;
    location    "35";
    object      phi;
}
// * * * * * * * * * * * * * * * * * * * * * * * * * * * * * * * * * * * * * //

dimensions      [0 3 -1 0 0 0 0];

internalField   nonuniform List<scalar> 
49858
(
4336.86
200.559
-824.415
10592.5
565.398
-4707.12
14021.7
1177.56
-3115.06
12271
3515.06
-847.222
9614.62
3366.44
-134.501
8966.96
1278.91
-219.96
9902.19
-765.032
95.1651
10884.1
-1186.71
499.042
10661.7
-639.147
1307.49
8424.95
107.708
2661.01
4842.19
116.712
3930.34
2079.83
-1303.39
4489.73
959.623
-2828.16
4330.37
677.923
-3215.32
3900.2
762.848
-3408.45
3742.35
1251.44
-4298.62
4073.94
2014.86
-5571.74
4768.68
3117.57
-6966.52
5547.2
4379.59
-8009.31
6360.21
4593.13
-7355.95
6922.79
2770.54
-3874.07
5971.52
-859.9
-226.461
4897.43
-1351.94
-1701.67
3984.81
5591.53
-2165.26
-1990.39
3436.33
1748.78
4086.45
452.654
-664.261
5370.07
3664.13
-2818.51
4367.93
4813.75
-1486.59
2770.31
6175.09
-300.265
1652.26
5074.27
-66.4106
430.763
3204.3
-341.342
-1258.97
1095.63
44.8036
-2803.33
-196.617
767.356
-4391
-342.758
1619.99
-6180.88
-259.939
2547.33
-8330.72
-669.101
3249.4
-10718.4
-2022.34
3383.87
-12548.3
-3651.22
2912.17
-13114.3
-4711.11
2337.74
-12666.8
-5749.55
2174.07
-11755.9
-7322.69
2302.86
-10498.2
-9339.51
2496.01
-8760.69
-11692.2
2798.32
-6483.98
-13887.2
3361.7
-3938.58
-14444.2
4398.53
-1703.24
-11550.9
5590.25
-342.987
-6211.28
5270.32
1866
-6639.19
4125.16
1327.83
-1705.42
1285.11
2976.53
2403.2
3765.22
867.74
-528.37
4411.05
6276.26
-1947.22
3811.57
7496.28
-1058.2
3512.99
7772.08
-511.651
3152.48
6473.02
-433.454
2383.76
4997.95
-598.185
566.666
3629.25
-405.156
-1787.79
2172.2
292.614
-4066.42
1209.16
1134.74
-6580.55
695.445
1982.52
-9474.43
-59.6146
2627.36
-12294.8
-1599.24
2706.59
-14332.2
-3425.75
2097.12
-15146
-4819.82
1201.19
-14832.4
-6293.02
500.871
-13764.5
-8230.5
16.8482
-12287.2
-10415.3
-407.14
-10422.6
-12907.2
-811.962
-8090.38
-15605.9
-811.069
-5465.37
-17437.1
274.312
-3076.01
-16274.5
2477.82
-1964.15
-10836.8
4066.32
591.778
-8424.57
224.423
305.818
-2417.29
1962.24
2815
923.788
3653.08
1266.78
-411.636
4434.33
8030.05
-1348.4
4689.68
9121.36
-913.109
5212.14
8702.38
-653.281
5135.66
7662.45
-500.716
4596.24
6564.14
-613.467
3189.87
5827.48
-504.219
776.785
4725.62
186.466
-2014.34
3293.15
1202.23
-5003.16
2016.42
2182.96
-8120.22
518.956
2881.07
-11014.4
-1398.94
2975.08
-13164.9
-3306.3
2312.14
-14100.1
-4772.79
1181.2
-13800
-6315.81
14.5272
-12727.8
-8256.52
-852.671
-11468.5
-10232.4
-1429.39
-10086.1
-12334
-2091.2
-8361.67
-14841.8
-2669.27
-6117.24
-17409
-2370.43
-3651.63
-18253.4
-383.968
-3171.99
-14212.9
3292.16
-1440.02
-7401.16
-1695.12
-1732.02
-3434.44
2345.55
2362.12
1668.56
3695.7
1532.8
-326.686
4943.75
8918.59
-993.08
5812.17
9979.98
-800.463
6834.85
9223.87
-753.563
7328.72
8410.66
-603.633
7247.82
7800.05
-706.906
6629.42
7413.45
-638.797
4660.95
7025.89
83.0438
1526.78
5690.76
1340.76
-1992
3618.12
2514
-5467.69
1055.33
3338
-8536.31
-1459.97
3491.81
-10865.5
-3482.01
2848.03
-12060.7
-4897.04
1655.96
-12072.8
-6281.77
293.243
-11324.9
-8108.59
-689.082
-10476.1
-9903.67
-1170.22
-9567.72
-11604.9
-1789.41
-8318.26
-13588.1
-2696.4
-6418.06
-15972.2
-3437.54
-3958.53
-17779.7
-2821.44
-3028.81
-15832.6
1096.69
-3335.23
-6581.87
458.622
-1150.95
-4802.05
164.528
2381.82
253.087
3760.26
1674.15
-265.603
5315.18
9240
-766.685
6461.51
10362.1
-634.752
8128.15
9155.63
-840.805
9533.44
8485.56
-838.334
10200.6
8474.79
-918.407
10335.3
8498.07
-957.393
8984.61
8919.25
-157.984
6027.91
8040.77
1321.07
2120.91
5486.64
2787.42
-1807.83
1605.65
3835.53
-5125.84
-1899.46
4109.72
-7690.05
-4077.79
3533.35
-9248.51
-5309.07
2359.25
-9775.8
-6345.17
973.789
-9519.74
-7991.99
-119.537
-9070.83
-9661.48
-646.422
-8565.44
-11158.7
-1096.49
-7753.98
-12741
-1857.94
-6281.64
-14641.7
-2916.98
-4110.81
-16465.6
-3363.05
-2626.25
-15868.7
-1015.48
-1745.17
-8381.7
1830.17
26.8574
-2643.2
-2360.17
4595.13
2743.91
3834.23
1698.06
-224.556
5644.89
9166.54
-634.155
6962.65
10458.5
-535.441
8711.23
8908.36
-799.489
11289.9
7557.29
-1060
13453.3
8019.9
-1309.52
14741.2
8941.06
-1445.7
14412.1
10444.2
-716.475
11716.1
10627.9
934.502
7305.82
7940.99
2789.33
2727.27
2493.87
4189.69
-946.026
-2403.77
4655.72
-3892.27
-4816.75
4166.85
-5895.32
-5923.7
3080.11
-6977.62
-6637.35
1813.81
-7308.09
-8002.34
631.66
-7236.41
-9510.79
-192.959
-6993.87
-10897.6
-690.73
-6492.84
-12297.4
-1206.64
-5450.5
-13823.1
-2010.64
-3865.96
-15461.2
-2462.02
-2721.66
-15321.6
-1218.38
-2617.49
-9094.8
1612.91
919.759
1047.68
-5443.11
2769.75
5689.53
3887.52
1638.76
-196.765
5868.66
8839.44
-549.486
7351.11
10321.7
-468.192
8838.49
8826.13
-722.386
11416.3
6583.79
-1070.86
15340.6
6018.83
-1571.93
19067.2
7479.04
-2050.36
20649.5
10761.5
-1535.17
18968.2
13069.9
105.609
14147.1
11386.2
2282.25
8441.45
4654.66
4161.11
4110.12
-2386.33
4911.04
417.59
-5017.92
4473.48
-2308.33
-6220.64
3562.65
-4088.29
-6842.4
2504.19
-5211.54
-7918.3
1397.84
-5671.36
-9223.06
245.383
-5673.51
-10455.9
-598.848
-5381.2
-11543
-1303.01
-4704.48
-12603.6
-2032.41
-3712.38
-14117.8
-2180.13
-3426.99
-14295.3
-784.107
-3450.52
-9682.41
1706.38
-794.608
313.364
-246.769
2520
8344.76
3935.3
1513.29
-179.826
6069.66
8322.37
-508.537
7734.22
9970.28
-429.266
9150.25
8751.82
-675.322
10910.3
6284.75
-983.966
13920.4
4718.36
-1422.36
19298.3
4410.19
-2142.73
26045.6
6819.84
-2428.69
28388.6
12724
-1131.09
23233.3
16252.7
1362.12
15293.7
9502.19
3929.03
9556.54
-1046.45
5049.84
4616.27
-3836.18
4457.33
748.296
-5450.11
3713.91
-1915.83
-6476.49
2853.92
-3775.98
-7594.41
1899.84
-4859.87
-8779.24
694.529
-5312.36
-9804.95
-401.118
-5364.95
-10451.8
-1327.84
-5104.19
-10759.1
-2275.92
-4562.32
-11790.5
-2741.27
-4551.87
-12135.4
-1692.53
-5329.08
-8539.5
628.643
-2667.04
1707.78
-2685.9
3214.12
5942.09
3959.05
1351.96
-169.253
6204.47
7692.5
-490.608
8031.98
9457.35
-408.585
9515.02
8592.82
-646.071
10952.4
6249
-932.62
13016
4183.39
-1257.52
16416.4
2935.93
-1808.73
22688.1
3035.19
-2282.66
32200.3
5626.33
-1859.81
35134.4
13996.2
70.2689
26097.5
15354.9
4142.12
16587.4
3898.29
5534.48
9955.33
-806.383
4463.17
4589.37
-3287.52
3930.09
660.658
-5205.94
3294.53
-1964
-7003.36
2461.56
-3512.57
-8349.69
1233.88
-4313.08
-9213.34
56.5199
-4703.04
-9445.83
-851.687
-4989.46
-8855.02
-1750.56
-5191.68
-8909.49
-2540.53
-5297.81
-9404.76
-2209.11
-5532.71
-7763.09
176.232
-2035.55
830.793
-1647.04
2993.36
3477.92
3979.43
1164.51
-164.142
6327.75
6982.36
-498.69
8312.29
8806.12
-409.889
9937.35
8277.81
-620.653
11263.7
6266.76
-884.466
12837.1
4009.32
-1152.53
15236.7
2208.97
-1558.65
19117.9
1222.77
-1888.6
25872.8
1053.15
-1750.29
38829.7
2406.56
-710.839
38302
12238.8
4838.8
25278.4
11946.1
6060.43
17038.7
4221.08
4244.67
10844.9
-286.712
4010.54
5733.5
-3254.29
3876.8
1923.35
-6222.59
3505.63
-499.867
-8279.49
2445.47
-1725.92
-9389.25
1185.73
-2273.45
-9606.84
356.51
-2885.4
-8305.22
-156.154
-3665.42
-7173.8
-867.746
-4548.05
-6963.94
-1158.01
-4879.18
-7368.28
601.55
-3150.76
-315.299
176.838
4590.08
2137.14
3979.24
972.239
-161.667
6394.31
6253.93
-514.193
8481.21
8087.45
-413.391
10223.2
7848.8
-588.268
11587
6222.64
-841.931
12965
3980.9
-1087.66
14828.4
1863.83
-1399.19
17541.5
323.202
-1661.1
21134
-770.716
-1456.13
25295.9
-1026.86
-424.538
29181.5
5132.91
3552.84
27497
9449.7
5074.39
22231.4
7070.99
3482.02
16998.6
2586.39
3299.23
12297.5
-1394.47
3637.12
7893.86
-5252.11
3976.89
4385.94
-8221.16
3596.68
2202.44
-9985.45
2575.02
1031.62
-10469.5
1688.69
-28.1689
-8738.62
1297.96
-1288.95
-6716.94
951.197
-2484.88
-5866.7
586.446
-3567.18
-6706.5
1127.4
-1494.12
-1713.9
-136.687
4689.2
-154.511
3978.64
781.693
-161.154
6451.65
5510.83
-540.512
8609.94
7328.78
-425.67
10442
7328.21
-565.52
11883.7
6069.97
-799.978
13150.3
4003.01
-1022.32
14616.2
1790.48
-1266.3
16627.6
-38.7118
-1470.75
18922
-1424.01
-1318.32
20520
-2013.84
-280.191
21512.8
1726.49
2729.24
21394.1
6419.74
3745.62
20884.8
5980.37
2468.87
18902.3
3294.69
2152.26
15613.3
-39.8767
2702.27
11717.7
-4121.55
3277.62
7743.14
-7537.96
3410.26
4584.34
-10115.7
3026.68
2475.12
-11184.1
2403.19
646.384
-9211.43
2021.39
-1205.97
-6167.99
1401.4
-2757.45
-4282.42
434.23
-4118.04
-4571.71
-114.223
-1821.32
-2418.49
-1080.16
3418.44
-614.138
3961.22
605.567
-160.645
6471.56
4792.66
-565.473
8706.86
6551.24
-442.896
10657.5
6713.35
-549.368
12221.5
5798.57
-761.126
13465.1
4020.24
-967.917
14696.9
1874.65
-1171.95
16237.3
-63.0715
-1336.85
17938.6
-1606.07
-1234.13
19006
-2450.74
-409.834
19202.7
-363.394
1961.49
18727.2
4078.61
3183.69
18770.2
4707.81
1888.31
18758.2
2873.38
1178.19
16635.9
892.519
1919.22
13126.2
-2546.62
2438.28
9098.76
-6097.28
2724.87
5311.35
-9331.34
2801.27
2034.16
-10875.7
2658.32
-796.022
-8990.32
2440.78
-2888.79
-5567.76
1621.07
-3678.28
-2767.91
-270.569
-4647.16
-1699.99
-1276.74
-1791.2
-3343.01
-1458.93
981.871
-740.284
3947.99
442.99
-160.364
6493.58
4087.65
-596.245
8784.25
5753.63
-467.5
10799.3
6036.08
-538.126
12438.4
5429.89
-722.375
13718.4
3948.05
-908.112
14821.9
2002.66
-1072.61
16021.5
130.447
-1205.08
17402.3
-1510.73
-1157.88
18350
-2556.08
-558.777
18445.7
-1521.48
1231.24
17913.9
2118.1
2796.85
17895.5
3652.03
1669.69
18558.5
2341.03
513.711
18082.1
649.54
1362.06
15775
-1584.51
1841.96
11778.4
-4132.55
2140.86
7351.13
-7575.68
2462.58
3150.58
-9873.5
2830.42
-258.721
-8742.81
2920.98
-2320.1
-5601.27
2163.84
-2624.65
-2191.72
160.749
-2158.62
-601.677
-911.809
-231.09
-3248.51
-1349.74
-210.492
-357.391
3922.34
297.145
-159.374
6487.7
3435.83
-621.317
8821.48
4968.47
-491.2
10925.1
5305.28
-534.977
12696.1
4935.54
-695.714
14045
3795.88
-861.575
15072
2128.28
-981.896
16120.4
353.444
-1075.68
17336.6
-1370.18
-1073.75
18262.4
-2609.98
-662.831
18374.3
-2282.97
702.968
17844.6
672.69
2221.42
17975.6
2665.82
1332.93
18711.2
1885.59
254.422
19195.4
-292.174
1008.23
18479.3
-1855.21
1452.76
15398.9
-2410.11
1519.35
10646.7
-4907.16
1881.56
5744.92
-7957.64
2704.2
1654.82
-8036.65
3230.32
-1070.91
-5566.62
2834.68
-1791.25
-2193.47
1215.65
-1126.13
-479.202
-96.369
-524.544
-2896.27
-304.796
-803.763
37.5221
3903.49
172.065
-156.843
6486.74
2788.16
-651.237
8854.79
4181.47
-515.867
11013
4511.43
-541.716
12867.8
4332.66
-672.629
14300.6
3514.39
-824.327
15354.2
2164.5
-924.473
16305.6
578.217
-972.56
17375.9
-1165.27
-959.997
18387
-2662.34
-670.556
18369.6
-2501.2
389.748
17562.4
26.67
1697.94
18072.3
1528.41
1021.81
19489.5
1027.05
-93.6647
20121.4
-1237.73
764.332
19992.6
-2700.26
1362.3
18416.4
-1786.4
1087.52
14233.5
-2152.82
1210.96
8772.44
-5150.12
2287.4
4062.52
-6832.66
3268.61
786.58
-5430.86
3245.9
-624.858
-2473.21
2189.35
-863.764
-604.288
1115.76
-1099.24
-2957.52
988.794
-1322.79
291.842
3869.37
64.4891
-153.321
6465.32
2199.85
-670.383
8856.07
3430.85
-535.391
11062
3709.49
-547.356
13019.6
3647.97
-657.282
14573.2
3113.14
-800.022
15741.2
2089.97
-904.646
16775.5
702.305
-942.979
17831
-1027.47
-900.958
18632.2
-2595.03
-632.989
18126.1
-2098.69
206.966
16847.7
219.252
1325.66
17122.1
758.58
846.103
19804.1
-654.87
-606.199
21462.3
-2843.45
292.857
20738
-2982.55
1325.41
19455.4
-1399.14
1035.45
16698.1
-239.975
667.831
11440.9
-1945.65
1742.43
6201.5
-4880.04
3153.09
2866.09
-5330.47
3439.9
990.477
-2758.11
2749.05
-325.4
-919.364
2505.25
-1508.22
-3808.83
2576.61
-1889.93
423.762
3842.22
-23.081
-149.039
6457.95
1633.2
-691.626
8865.22
2669.52
-557.317
11097.8
2886.3
-555.834
13114.6
2872.85
-650.196
14763.2
2586.89
-781.917
16038.8
1894.28
-895.552
17120.4
766.372
-938.733
18157.6
-868.407
-856.389
18471.4
-2031.8
-574.011
17675.2
-1218.97
69.4084
16797.6
441.027
893.03
16534.9
678.77
654.592
18795.4
-1722
-827.066
21393.1
-4691.85
-433.141
21003.8
-3220.16
924.445
19251.3
-516.341
1006.61
17361.6
1053.79
422.416
13117.9
769.842
1173.51
7784.45
-2692.68
2926.27
4424.14
-5300.72
3515.93
2451.99
-3244.55
3062.5
93.1437
-1275.37
3579.68
-2285.28
-4656.93
3923.2
-2352.76
608.675
3808.63
-82.6548
-141.736
6441.68
1179.23
-702.21
8869.39
2016.22
-562.325
11114
2125.97
-555.869
13180.3
2122.52
-637.222
14939.1
2003.24
-770.041
16350.4
1616.99
-894.892
17536.2
783.587
-945.929
18438.2
-638.815
-816.752
18282.5
-1108.46
-511.291
17503.2
-266.393
-47.687
17150.5
588.361
456.314
17506.9
465.445
166.562
18988.2
-1902.42
-961.552
20308.7
-4690.8
-1012.33
20168.9
-3024.57
239.906
18945.7
32.6114
793.769
17862.1
1687.23
274.459
14762.5
2611.07
883.584
9085.2
90.08
2712.02
5162.18
-4702.97
3535.25
3680.71
-4322.72
3184.35
778.341
-1678.77
4441.84
-3234.48
-4953.9
5436.63
-2725.57
870.721
3788.81
-110.905
-133.282
6454.13
710.481
-724.575
8902.69
1340.64
-578.634
11136.8
1356.45
-557.297
13196
1335.71
-630.13
14987.4
1352.09
-765.223
16479.8
1241.16
-897.928
17720.1
727.23
-945.765
18237.2
-78.7682
-752.646
17850.6
-27.7329
-449.42
17512.8
412.229
-207.029
17667.3
649.724
12.4782
18523
256.049
-344.823
19891.3
-1663.39
-1252.34
20664.4
-3736.13
-1358.5
20448.6
-2147.04
-272.783
19514.4
586.452
588.019
18662.6
2098.11
301.355
16472.9
3647.04
789.279
10541.3
3287.18
2514.85
5217.47
-2697.2
3563.52
4180.04
-5797.14
3185.79
2042.93
-2927.48
4617.78
-4618.78
-3815.66
7439.85
-2181.2
1265.09
3757.89
-130.991
-125.81
6493.08
471.424
-739.265
8966.93
831.64
-586.318
11175.6
736.763
-545.48
13189.5
673.921
-609.414
14962.4
774.641
-750.678
16483.8
896.5
-898.251
17657.5
722.393
-935.493
17955
589.857
-714.702
17700.3
836.844
-455.23
17831.1
788.245
-411.67
18498.6
598.104
-406.833
19669
108.199
-760.85
21059.2
-1308.83
-1433.23
21936.5
-2663.65
-1626.05
22119.8
-1394.23
-619.448
21528.7
755.437
527.183
20657.1
1863.55
796.186
19441.8
3153.45
1144.06
14256.1
5429.12
2636.21
6652.52
1216.87
3869.75
3760.4
-5874.79
3670.03
2678.7
-5005.24
4666.63
-6333.47
-1554.34
9864.83
-729.385
2066.86
3758.55
-65.3863
-119.433
6566.64
571.076
-820.476
9054.29
650.269
-636.271
11172.9
400.882
-561.744
13023.5
272.094
-600.956
14653.9
375.872
-737.123
16083.4
635.401
-897.868
17094.3
857.781
-917.487
17470.4
1142.91
-714.825
17807.2
1208.89
-552.772
18580.7
707.54
-632.46
19760.4
350.784
-731.401
21150.1
-2.19749
-1016.72
22515.6
-841.425
-1465.05
23560.4
-1602.57
-1662.84
24074.3
-688.088
-749.975
23559.6
848.4
623.169
21981.3
1467.03
1693.57
20645.1
1520.69
2357.36
19786.6
2773.09
3099.2
12493
3932.91
4989.8
3880.65
-766.547
4635.09
-898.519
-3284.32
4927
-12976
4317.15
9194.52
7816.47
9644.42
3752.48
74.0831
-126.154
6674.12
1147.83
-921.894
9109.86
856.414
-694.531
11026.2
436.904
-564.393
12558.8
200.137
-555.009
13872.8
243.272
-672.873
15135
500.505
-836.585
16384.9
715.108
-891.592
17743.9
754.366
-775.015
19274.1
501.514
-717.996
20747.5
124.836
-803.117
22141.9
53.636
-895.875
23435.6
126.739
-1100.68
24549.6
-76.8253
-1411.64
25379.2
-341.726
-1513.87
25587.1
346.483
-677.65
24364.7
1500.01
756.631
21896.4
1020.07
2477.5
18081.7
193.485
4358.15
15814
-240.774
4920.91
11731.8
3245.71
5171.68
4025.28
3234.44
4824.55
-2730.03
741.491
4569.82
-8189.54
5776.97
6168.42
9300.78
7896.33
3746.19
-130.864
6819.49
-1061.55
9080.57
-768.257
10510
-562.174
11439.9
-466.14
12345.3
-518.636
13586.9
-657.681
15097.6
-734.579
16588.9
-694.158
17792
-673.749
18703
-740.807
19681.4
-830.277
20969.3
-1011.64
22357.2
-1263.47
23540.3
-1299.59
24593.1
-539.62
25223.4
850.53
22520.3
3507.95
16458.4
6041.59
9872.44
6298.41
7973.82
5281.61
7149.39
4419.79
5230.64
3191.15
4438.02
6907.89
5663.06
2996.64
759.404
-921.024
1747.46
2002.28
-3873.41
-56.6277
1240.8
-1549.97
-2681.86
2162.44
226.53
-5265.84
1891.35
967.005
-7027.89
440.894
1378.95
-8130.09
-768.404
2144.28
-9436.42
-1168.54
3131.32
-11155.6
-1143.96
4354.81
-13044.5
-1173.6
5920.7
-14616.9
-1749.75
7426.75
-14926.2
-3333.7
8301.52
-13736.3
-5133.9
8448.74
-12303.7
-6073.3
8756.19
-11289.7
-6715.09
9684.91
-9864.56
-7806.91
10629.4
-7768.94
-8980.16
11645.5
-5077.16
-10257.6
12912.4
-1924.93
-11345.3
14251
582.302
-10971.7
15233.7
1567.54
-8455.32
13795.5
2192.24
-2974.79
8629.37
8281.99
-2949.11
3022.79
7027.58
-1937.68
2712.91
1804.67
6148.58
3631.22
938.94
-827.589
496.677
5631.54
-1985.96
-4614.87
5560.22
223.128
-8107.93
4900.64
1060.04
-10177.5
3045.12
1267.48
-12056.3
808.128
1445.84
-13918
-733.672
2043.62
-15430.8
-1737.58
2992.95
-16552.3
-2289.22
4064.18
-17224.7
-2897.85
5135.65
-17362.8
-4082.6
5885.45
-16804.9
-6102.41
5748.13
-15193.3
-8555.95
4892.59
-12941.1
-10174
4395.4
-11102.1
-10965.2
4830.18
-9382.92
-12510.1
5471.02
-7172.05
-14414
5737.18
-4670.11
-16172.3
6024.62
-2211.86
-17556.1
6833.27
-452.973
-16854
8369.08
2566.91
-12736.8
7216.2
3138.06
-6312.12
9419.66
5305.7
-10463.3
11298
4626.73
-5810.54
6782.27
352.964
6116.31
3490.18
1279.79
-722.57
1385.15
8331.73
-1374.05
-2321.91
8946.49
140.376
-4559.58
6835.29
456.857
-5934.65
3993.19
483.935
-7383.67
1343.44
654.844
-9073.03
-330.874
1104.26
-10682.4
-1516.85
1877.62
-11847
-2544.94
2781.16
-12454
-3636.6
3559.81
-12449
-5182.91
3911.42
-11452.2
-7549.11
3341.01
-9135.18
-10477.4
1900.61
-6305.28
-12203.4
644.858
-4181.2
-12733.5
426.97
-2462.81
-14453.4
465.056
-908.336
-16191.6
-154.996
108.572
-17031.1
-1160.77
458.193
-17728.8
-1266.08
150.747
-17641.1
1227.73
2883.86
-14036.6
1328.48
1753.57
-8327.77
8137.19
165.009
-11644.5
5210.76
-1517.77
-5515.41
4248.41
1468.39
916.149
3551.47
1579.95
-625.92
2782.17
9886.7
-1022.64
604.042
11104.4
-14.2886
-987.193
8479.88
-4.76904
-2082.74
5174.1
-50.2651
-3504.3
2423.31
89.357
-5165.91
590.401
468.165
-6849.39
-707.691
1271.38
-8263.85
-1947.24
2284.98
-9158.08
-3453.31
3167.37
-9241.42
-5549.67
3538.04
-8081.18
-8423.34
2884.47
-5467.17
-11753.8
1197.18
-2213.19
-13558.4
-441.994
88.5429
-13692.5
-1010.81
1185.85
-15001.8
-1146.93
1576.5
-16432.1
-1532.56
1500.02
-16840.5
-2381.5
828.226
-16661.2
-3329.59
-391.788
-16706.2
-2210.06
1069.19
-14947.7
-699.897
813.86
-10502.1
6542.93
-2329.55
-10406.8
2316.2
-300.884
-6179.33
1901.65
3609.49
1360.07
3685.29
1764.98
-554.802
4015.88
10524.9
-867.018
2934.02
12299.4
-48.134
1769.63
9874.58
-273.531
1039.63
6394.46
-516.224
-212.58
3722.64
-363.967
-1823.05
1780.77
41.6464
-3608.86
396.03
1011.64
-5209.72
-986.5
2292.39
-6420.89
-2865.97
3450.77
-6784.21
-5633.18
4022.26
-5728.29
-9175.63
3416.88
-3155.03
-12886.7
1669.75
136.122
-14797
-82.8885
2480.96
-14495.9
-891.791
3301.33
-15188.7
-1033.82
3109.37
-16578.2
-783.031
2439.97
-17294.3
-858.968
1316.79
-17060.6
-1462.64
-264.1
-16687.7
-2032.7
6.46062
-15747.2
-2119.68
1470.05
-12723.7
2501.21
-705.645
-7855.73
1603.5
-1789.19
-5206.73
2326.77
8795.47
1277.58
3812.1
1837.77
-503.593
4841.29
10616
-794.737
4695.75
12751.7
-79.9634
4208.9
10640.2
-415.358
3737.51
7485.86
-870.754
2778.36
5025.97
-866.687
1330.58
2973.9
-463.934
-540.921
1656.61
682.627
-2317.28
177.261
2259.9
-3798.79
-2006.62
3752.8
-4590.79
-5372.81
4629.91
-3963.63
-9619.77
4183.11
-1836.71
-13681.3
2492.5
1111.87
-15742.4
698.951
3585.69
-15228.5
-374.074
4577.28
-15460.9
-527.007
4182.05
-16766
-0.207945
2927.28
-17853
522.205
1148.61
-17863.2
413.864
-706.128
-17430.1
-477.173
-1205.59
-17050.6
-1402.14
861.239
-14429.6
-847.641
1640.17
-7841.61
2333.44
4459.14
-5209.18
-1345.97
12698.4
3218.74
3920.63
1811.55
-469.148
5423.7
10355.3
-775.775
5842.27
12795.4
-134.799
5724.55
11024.5
-393.4
5892.83
7865.21
-1062.41
5589.04
5807.37
-1400.17
4416.64
4073.94
-1141
2673.27
2827.47
88.8895
766.966
1420.49
1946
-928.998
-975.653
3818.28
-2206.35
-4739.29
5131.51
-2265.1
-9544.25
4934.79
-869.396
-13980.2
3400.5
1403.76
-16230.1
1673.66
3752.02
-15851.8
506.588
5037.99
-15897.7
118.645
4849.32
-17085.6
385.896
3443.96
-18276.6
898.903
1335.42
-18528.2
1202.11
-826.816
-18081.1
586.884
-1906.46
-18115.2
-199.884
-194.257
-16789.6
-111.017
346.621
-7380.02
1911.64
5229.52
-3536.2
-7867.56
10942.6
4915.59
3998.66
1714.37
-445.737
5844.44
9861.25
-786.969
6736.35
12520.5
-207.961
6834.1
11245.3
-375.341
7171.57
8003.19
-1040.1
7721.78
5716.41
-1683.89
7368.46
4419.79
-1849.54
5997.87
3640.28
-780.491
4211.81
2383.06
1241.49
2379.76
22.8507
3442.12
659.395
-3806.28
5237.78
-165.876
-8833.85
5375.35
303.811
-13683.3
4084.66
1575.14
-16189.4
2653.4
3216.65
-16183.3
1627.08
4454.71
-16374.7
991.799
4544.93
-17719.9
872.581
3288.46
-18989.2
1144.45
1256.44
-19388.3
1223.4
-922.661
-18668.2
523.78
-2453.8
-18697.5
72.3285
-1416.52
-18667.3
508.906
3042.48
-9844.66
790.775
7335.45
-2805.29
-2112.99
8102.28
9210.83
4058.38
1562.49
-431.525
6168.71
9203.38
-830.241
7497.48
11963.7
-305.135
7903.65
11235
-403.415
8051.68
8283.08
-939.651
8849.58
5477.22
-1683.06
9759.08
3779.6
-2249.03
9455.6
3419.29
-1732.83
7979.85
2827.95
198.585
6174.56
835.326
2659.61
4412.39
-2800.58
4977.4
3082.79
-7584.59
5557.16
2679.51
-12845.2
4459.31
2910.95
-15688.5
3417.52
3520.37
-16210
2725.13
4063.11
-16609.7
1949.64
3818.49
-18239.6
1539.46
2363.62
-19745.3
1582.66
291.718
-20016
1000.88
-1906.75
-18357.6
-616.277
-3956.54
-17753.8
-1536.85
-3807.69
-18567.3
-1499.7
-1768.03
-10827.3
666.118
417.607
-1231
-3542.22
233.858
8884.04
4091.33
1380.3
-422.599
6399.15
8448.65
-885.51
8089.14
11200.6
-410.622
8879.96
10957.8
-467.331
9007.92
8562.05
-868.289
9416.79
5641.94
-1552.08
10651.2
3146.67
-2284.51
12010.9
2212.64
-2322.93
11913.6
2166.55
-869.406
10535.7
895.643
1624.26
9409.53
-1837.86
4571.41
7738.64
-5576.17
5757.05
6357.04
-11169.1
4691.57
5623.56
-14627
4079.81
5464.87
-15997.7
3715.47
5448.53
-16755.8
3008.34
4646.35
-18469.5
2384.97
2834.7
-20118
2041.93
633.094
-20219.1
1210.51
-1945.11
-17035.4
-705.681
-5017.27
-14822.5
-2315.51
-6149.78
-16205.6
-3078.56
-4679.3
-10636.2
-671.678
-4737.19
3323.86
-4205.82
338.372
10632.5
4110.37
1180.67
-417.337
6560.87
7638.55
-955.796
8484.16
10328.9
-513.434
9600.33
10470
-535.276
9927.96
8649.38
-827.445
10162.5
5927.04
-1407.56
10872.1
3120.31
-2130.44
12582.1
1178.19
-2460.21
14544.3
419.421
-1757.42
14670.5
-168.863
467.588
14704.7
-575.221
3825.59
12827.1
-2525.86
5531.68
10055.5
-8244.44
4669.61
8235.2
-12773.9
4507.75
7204.54
-15125.8
4527.5
6789.48
-16617.9
4180.74
5801.82
-18650.9
3727.99
3885.61
-20526
3273.32
1825.08
-20742.5
2549.92
-416.261
-16367.8
1145.82
-3779.62
-11595.8
-687.438
-6524.82
-12108.6
-2196.55
-6108.89
-10102
242.608
-4194.9
443.093
2076.6
593.254
7044.62
4108.63
981.403
-413.322
6655.07
6820.14
-1024.71
8754.43
9405.16
-607.899
10169.8
9819.12
-604.466
10789
8516.56
-830.781
11049.8
6156.57
-1301.63
11504.4
3344.14
-1963.91
12550.5
951.372
-2395.41
14545.9
-781.431
-2101.55
16603.5
-1873.62
-628.376
18183.4
-818.511
2408.04
16657.2
521.108
4240.71
13072.1
-4879.53
4403.93
10343.1
-10593.2
4399.41
8120.2
-13631.1
4849.48
6411.88
-15587.7
5034.15
4864.27
-18212.8
4831.92
2973.71
-20574.8
4306.98
1159.48
-20942.8
3323.83
-201.821
-16460.7
2465.14
-2141.98
-9923.54
1281.87
-4555.87
-8072.05
-656.212
-5953.7
-7384.95
386.239
-5060.55
-434.325
644.861
810.106
845.125
4101.73
788.44
-410.147
6717.71
6008.03
-1100.12
8952.49
8454.3
-702.845
10604.8
9050.34
-676.675
11511.5
8187.94
-857.002
11919.3
6228.99
-1220.45
12284.2
3619.09
-1785.38
13025.8
1088.9
-2258.78
14265.7
-979.674
-2199.11
16181.7
-2677.05
-1226.83
19638.2
-2252.76
929.296
20017.3
1607.37
2934.02
15937.8
-1175.49
3685.69
12583.2
-8460.05
3946.34
9509.24
-12014.9
4648.99
6581.63
-14243.9
5232.08
3650.72
-17098.2
5342.26
900.923
-19832.8
4852.32
-1109.08
-20483.4
3600.2
-2015.77
-16671.3
2867.81
-2479.97
-9785.48
1783.73
-3482.22
-5986.4
-182.352
-5646.32
-4926.2
307.047
-5743.25
-1138.48
436.986
-808.563
670.791
4081.27
610.178
-406.665
6740.48
5235.08
-1167.72
9072.05
7508.86
-791.641
10926.5
8199.33
-744.204
12119.1
7683.45
-895.099
12762.5
6119.41
-1189.86
13189.9
3816.24
-1660.92
13753
1398.31
-2110.51
14666
-766.953
-2211.35
15884.6
-2585.41
-1589.09
18814.9
-3007.82
-103.776
21996.6
566.929
1527.76
20497.2
790.84
2593.25
15739.4
-5238.84
3407.07
11951.8
-9987.93
4186.87
8103.74
-12632.8
5052.52
3981.28
-15626.9
5500.95
178.116
-18570.2
5198.5
-2549.03
-19519.8
4129.79
-3746.73
-16620.8
3358.75
-3913.08
-9840.85
1916.79
-4020.98
-4646.73
-987.482
-5276.59
-3278.06
-904.563
-5920.48
-443.017
-767.525
-460.343
-889.129
4060.83
449.092
-401.882
6749.91
4493.98
-1239.34
9145.62
6578.6
-877.679
11148.1
7290.9
-811.952
12568.3
7039.75
-930.612
13443.8
5831.44
-1175.47
14013.1
3890.51
-1577.08
14562.9
1730.93
-1983.5
15305.6
-336.346
-2162.36
16259.5
-2128.54
-1809.66
18138
-2768.17
-750.789
23330.4
-1667.01
301.02
25641.3
353.545
1125.54
19966.4
-927.485
2656.62
15524
-7185.76
3566.91
11002.1
-10541.9
4680.72
5655.11
-13459
5455.58
581.418
-16695.1
5525.68
-2748.99
-18446.4
4815.67
-3850.22
-16637.8
3838.28
-4055.27
-9995.49
2586.69
-4075.31
-3300.76
-668.313
-4119.3
-2255.22
-1099.55
-3590.52
-13.2605
-1540.49
810.007
-954.828
4029.98
309.438
-395.935
6732.83
3797.34
-1301.36
9170.56
5692.1
-953.812
11278.6
6360.09
-875.823
12890.9
6297.09
-966.042
13954.7
5411.33
-1166.22
14669.6
3853.15
-1504.19
15336.1
1990.97
-1880.36
16104.5
98.8832
-2114.7
16971.3
-1560.13
-1948.43
18432.2
-2267.24
-1158.14
21851.9
-2149.88
-365.68
25086.4
-447.613
-114.023
23057.9
825.291
1377.44
19561.1
-4760.18
2695.99
14829.4
-8069.84
4154.82
8389.46
-10517.1
5161.5
1962.91
-14125
5622.94
-2137.93
-17036.1
5152.76
-3361.07
-16435.3
4074.63
-3490.49
-10422.2
3467.23
-3472.83
-2385.93
808.535
-3748.39
-869.998
-410.805
-3172.39
222.332
-510.708
750.836
419.72
4000.07
186.715
-389.728
6716.46
3144.07
-1362.51
9177.72
4827.64
-1028.43
11355.6
5423.41
-937.799
13103.7
5468.89
-1005.09
14325.2
4863.52
-1162.36
15165.4
3669.38
-1439.39
15942.1
2125.41
-1773.33
16832.8
444.158
-2027.22
17809.8
-1037.61
-1993.17
19151
-1667.3
-1424.54
21481
-1660.6
-751.352
24350.9
-619.342
-815.779
24500.7
1286.42
128.446
22894.8
-3380.49
1592.94
19040.2
-5836.5
3428.94
12179.6
-7177.34
4795.9
4510.15
-10883
5519.7
-827.66
-14880.6
5245.84
-2971.34
-15455
4279.61
-3240.42
-10836.2
4030.58
-2717.77
-2675.34
2490.31
-2980.47
325.347
1001.77
-2548.64
559.979
930.389
490.817
486.378
3962.66
81.124
-382.096
6684.06
2539.99
-1418.38
9161.99
4002.09
-1093.48
11385.6
4501.86
-996.313
13254.1
4591.39
-1046.22
14640.3
4199.42
-1175.64
15615.4
3348.73
-1400.39
16476.1
2128.48
-1686.05
17408.4
707.19
-1927.66
18419.2
-553.871
-1965.16
19719.9
-1040.55
-1592.67
21680.8
-887.652
-1051.22
23978.9
-158.511
-1176.05
24750
1532.45
-769.161
24165.6
-2427.11
499.883
21908.8
-4217.75
2380.52
15935.3
-4230.46
4243.13
7321.05
-7181.36
5459.01
414.221
-11933.3
5483.05
-2863.78
-13678.6
4507.39
-3293.47
-11001
4138.22
-2395.11
-3690
3382.53
-2495.24
812.93
2958.86
-2195.46
511.082
3011.67
99.3691
223.385
3930.54
5.6122
-372.456
6657.73
1992.23
-1482.7
9154.84
3240.14
-1156.08
11405.9
3609.44
-1056.22
13364.8
3693.04
-1090.25
14890.9
3440.07
-1203.72
15991.1
2897.19
-1385.64
16905.7
2009.15
-1618.36
17845.3
884.357
-1812.7
18854.3
-79.8247
-1878.81
20087.8
-404.646
-1659.59
21904.6
-144.067
-1277.83
23799.6
703.628
-1365.8
24515.1
2001.11
-1199.01
23905.8
-1296.96
-370.869
22518.3
-2780.59
1298.63
18058.4
-1971.12
3387.29
9442.89
-3479.76
5238.37
1386.7
-8777.54
5860.3
-2642.96
-11637.4
4818.7
-3282.25
-10821.6
4110.66
-2249.22
-4992.56
3849.41
-2276.49
694.15
4564.36
-1811.76
-450.731
5240.55
-939.887
218.208
3890.67
-49.4065
-366.19
6634.37
1497.29
-1556.7
9144.18
2504.67
-1231.03
11413.7
2760.36
-1116.71
13432
2786.41
-1142.88
15071.7
2631.44
-1246.73
16306.3
2341.69
-1399.38
17293.8
1786.48
-1579.58
18256.9
991.098
-1711.19
19296.3
301.787
-1769.49
20513.7
165.019
-1664.55
22238.3
410.244
-1428.19
23687.2
1598.07
-1486.52
24085
2774.32
-1355.88
23132.7
207.933
-931.034
21824.7
-1293.17
510.218
18743.9
-433.865
2547.15
10708.8
-158.059
4899.57
2133.87
-5839.33
6349.32
-2436.24
-9817.4
5365.38
-3681.76
-10119.1
4228.11
-2511.74
-6510.53
4019.84
-1677.52
-147.897
5367.15
-2507.61
98.7441
6808.89
-1342.41
644.753
3855.27
-80.9703
-360.306
6633.67
1065.03
-1645.44
9168.11
1829.66
-1306.15
11451.6
1960.23
-1174.88
13502
1913.95
-1190.58
15206.9
1815.07
-1295.04
16544.3
1714
-1426.85
17609.7
1458.9
-1554.55
18603.7
1022.13
-1628.84
19645.9
624.432
-1658.04
20813.6
562.782
-1623.06
22326.6
788.668
-1484.46
23652.6
2063.82
-1533.11
24262.2
3073.32
-1477.86
23537.8
1355.45
-1167.55
22241.2
39.8271
148.674
19887.6
591.857
2124
12676.1
2368.51
4880.22
2939.59
-2284.02
6769.48
-2823.58
-8014.58
6390.85
-4376.62
-9687.67
4836.86
-3033.35
-8534.34
4370.94
-1192.06
-2087.38
5653.44
-3112.61
2122.39
8857.91
-1351.78
1597.75
3823.36
-103.316
-356.5
6664.14
593.642
-1793.63
9229.89
1134.89
-1419.71
11516.8
1152.71
-1257.85
13561.8
1055.36
-1251.84
15281.4
990.919
-1356.17
16671.8
1047.18
-1475.67
17797.8
1067.65
-1555.03
18859.7
978.916
-1580.09
19925.8
843.985
-1584.84
21001.9
829.39
-1578.78
22213.9
1075.08
-1479.05
23478.3
2163.23
-1511.64
24556.3
2826.42
-1517.34
24399
1863.48
-1196.51
23492.9
902.327
92.3666
21707.8
1180.98
2115.59
16365.3
3499.73
5098.52
5585.92
2122.54
7479.63
-3488.97
-4432.64
8175.82
-6524.81
-8908.76
6381.86
-5220.84
-10916.7
5299.39
-1658.35
-6001.05
6023.32
-4853.22
5891.99
10886.7
2219.63
2894.38
3795.6
-82.5283
-357.905
6743.59
649.878
-1920.88
9359.86
865.794
-1515.16
11654.3
730.719
-1316.24
13652
533.594
-1279.27
15328.5
433.19
-1367.21
16708.6
546.47
-1492.17
17869.2
731.954
-1555.54
19013.3
852.892
-1566.25
20121.9
864.515
-1564.93
21185.5
841.18
-1567.02
22276.2
1098.19
-1504.41
23579.3
1850.58
-1511.98
25028.7
2092.95
-1546.43
25495.2
1587.43
-1167.62
25017
1035.2
173.029
23647
1117.78
2325.85
20507.9
2795.79
5401.36
10914.7
4886.14
8855.03
-2351.26
1913.12
9819.7
-11036.2
-3795.43
8638.58
-14591
-9288.84
6911.83
-10872.7
-10090.3
5912.78
-6278.39
3235.05
8307.37
8978.65
6183.75
3803.35
65.4038
-347.071
6867.15
1132.54