/*--------------------------------*- C++ -*----------------------------------*\
  =========                 |
  \\      /  F ield         | OpenFOAM: The Open Source CFD Toolbox
   \\    /   O peration     | Website:  https://openfoam.org
    \\  /    A nd           | Version:  11
     \\/     M anipulation  |
\*---------------------------------------------------------------------------*/
FoamFile
{
    format      ascii;
    class       volVectorField;
    location    "35";
    object      U;
}
// * * * * * * * * * * * * * * * * * * * * * * * * * * * * * * * * * * * * * //

dimensions      [0 1 -1 0 0 0 0];

internalField   nonuniform List<vector> 
17196
(
(1.0544 0.00961212 -0.128058)
(2.92792 0.0265604 -0.817449)
(4.06328 0.214594 -0.475998)
(3.86298 0.469909 -0.0402169)
(3.07093 0.45707 0.0829902)
(2.72152 0.259961 0.0343012)
(2.74706 0.172769 0.13915)
(3.37297 0.276873 0.266315)
(3.58172 0.409283 0.452815)
(3.24299 0.551472 0.78942)
(2.16072 0.579874 1.10109)
(0.923623 0.419422 1.22654)
(0.270348 0.265975 1.21208)
(0.211435 0.257817 1.15781)
(0.292165 0.23238 1.12344)
(0.283648 0.0875792 1.16437)
(0.425573 -0.0886396 1.27736)
(0.705124 -0.2705 1.38651)
(1.04322 -0.422382 1.46972)
(1.33078 -0.372281 1.48673)
(1.31329 -0.0210077 1.33937)
(-0.0533987 0.329965 1.85064)
(0.20817 0.429447 1.79503)
(-0.0241913 0.962645 -1.15604)
(1.65877 0.745509 0.014758)
(1.10662 0.0448142 -0.102911)
(2.35729 0.347 -0.463116)
(1.32109 0.446737 -0.179493)
(0.718389 0.705131 -0.0158514)
(0.460966 0.636656 -0.00825698)
(0.423665 0.37024 -0.108243)
(-0.179688 0.0622738 -0.00558778)
(-0.618892 -0.0449928 0.204575)
(-1.06378 0.00473023 0.42736)
(-1.61387 0.0577174 0.642799)
(-2.18442 -0.00111333 0.791549)
(-2.95209 -0.239799 0.802527)
(-3.77089 -0.501354 0.700377)
(-4.14885 -0.62089 0.613861)
(-4.02801 -0.724353 0.610868)
(-3.83777 -0.940775 0.632667)
(-3.54458 -1.24595 0.662873)
(-3.07461 -1.60104 0.714167)
(-2.49531 -1.93283 0.798939)
(-1.7521 -2.029 0.975466)
(-0.887685 -1.62766 1.26248)
(-0.675735 -0.864018 1.88444)
(0.975737 -0.913946 2.04644)
(0.0929518 -0.0421368 0.186508)
(0.571023 0.373813 -0.0606009)
(1.06622 0.0981601 -0.0822482)
(2.06003 0.784609 -0.317164)
(0.995788 0.965965 -0.0984029)
(0.766102 1.08525 -0.0629352)
(0.932579 0.87802 -0.0903945)
(0.893178 0.594387 -0.148948)
(0.58053 0.306763 -0.088271)
(-0.174992 0.093773 0.105967)
(-0.886614 0.0148389 0.309008)
(-1.61433 -0.0295716 0.494123)
(-2.44773 -0.130451 0.626151)
(-3.40318 -0.356366 0.622202)
(-4.28162 -0.619518 0.485328)
(-4.73494 -0.806807 0.322712)
(-4.7246 -1.00721 0.22969)
(-4.51445 -1.29525 0.175246)
(-4.12059 -1.64145 0.137001)
(-3.59218 -2.03359 0.122124)
(-2.97371 -2.4243 0.160155)
(-2.23221 -2.61668 0.360727)
(-1.42215 -2.31593 0.809929)
(-1.04995 -1.4792 1.68015)
(0.480427 -1.30753 1.98479)
(-0.233725 -0.447221 0.76727)
(0.396719 0.453064 0.0959828)
(1.05634 0.163847 -0.0644608)
(1.91282 1.11223 -0.219322)
(1.15504 1.28951 -0.10048)
(1.19888 1.27944 -0.0887564)
(1.58437 1.09112 -0.0872614)
(1.47464 0.891608 -0.120952)
(1.36138 0.739563 -0.0705661)
(0.733751 0.533837 0.116598)
(-0.170289 0.349632 0.352612)
(-1.07127 0.222177 0.56385)
(-2.01455 0.0565704 0.706736)
(-2.98529 -0.213603 0.706413)
(-3.88211 -0.512915 0.553163)
(-4.39596 -0.748138 0.345756)
(-4.42045 -0.996361 0.198028)
(-4.18543 -1.30436 0.111828)
(-3.80323 -1.62931 0.0584579)
(-3.39088 -1.99188 -0.00953519)
(-2.94136 -2.40507 -0.0734025)
(-2.38356 -2.75714 -0.0150173)
(-1.68512 -2.7518 0.34273)
(-1.22635 -2.04132 1.32115)
(-0.0842532 -1.31593 1.71473)
(-0.819743 -0.446487 0.787766)
(-0.432128 0.413692 -0.0948198)
(1.0547 0.216182 -0.0514676)
(1.8694 1.32143 -0.160942)
(1.53245 1.50347 -0.111766)
(1.5687 1.40019 -0.126019)
(2.219 1.25027 -0.0872032)
(2.20465 1.11023 -0.0957593)
(2.2615 1.016 -0.0404881)
(2.01033 0.907998 0.143823)
(1.00344 0.686011 0.430289)
(-0.0473661 0.427715 0.685995)
(-1.1446 0.119112 0.857434)
(-2.18259 -0.226956 0.8727)
(-3.12661 -0.537235 0.72559)
(-3.71413 -0.769658 0.514429)
(-3.84211 -1.0048 0.347381)
(-3.69048 -1.2982 0.258835)
(-3.41771 -1.59217 0.205962)
(-3.16113 -1.89234 0.0976078)
(-2.8497 -2.24826 -0.0524662)
(-2.41755 -2.6407 -0.170167)
(-1.79145 -2.8463 -0.0422411)
(-1.33462 -2.37726 0.835608)
(-0.164772 -1.13514 1.75371)
(-1.36746 -0.624692 0.428661)
(0.164303 0.28634 -0.232246)
(1.05427 0.249437 -0.042034)
(1.8357 1.4128 -0.123761)
(1.7948 1.5904 -0.090801)
(1.79273 1.44148 -0.162519)
(2.79676 1.32911 -0.131402)
(2.97691 1.26584 -0.0941346)
(3.31791 1.23387 -0.0540656)
(3.28281 1.23225 0.142264)
(2.42559 1.06478 0.476118)
(1.33637 0.713573 0.805118)
(0.0829054 0.227377 1.03385)
(-1.08667 -0.233377 1.08236)
(-2.08837 -0.562238 0.961047)
(-2.77227 -0.775297 0.764165)
(-3.04845 -0.972937 0.585793)
(-3.05545 -1.24521 0.49556)
(-2.9145 -1.51161 0.456502)
(-2.79013 -1.759 0.350351)
(-2.60943 -2.0404 0.17775)
(-2.30717 -2.38196 -0.0263555)
(-1.7809 -2.6747 -0.0784859)
(-1.32991 -2.46163 0.512934)
(-0.353334 -1.17536 1.42472)
(0.414556 -0.67831 1.31745)
(-0.925745 0.562208 0.875305)
(1.05399 0.262068 -0.0356711)
(1.8196 1.43783 -0.102417)
(2.02359 1.63024 -0.0748238)
(1.95936 1.41732 -0.162064)
(2.98113 1.25213 -0.211449)
(3.84034 1.30822 -0.168778)
(4.48614 1.3622 -0.127965)
(4.85017 1.49874 0.0429253)
(4.21939 1.43602 0.406191)
(3.07741 1.02744 0.824545)
(1.65818 0.32633 1.13917)
(0.258601 -0.308428 1.24186)
(-0.831861 -0.668765 1.15443)
(-1.66344 -0.854315 0.978905)
(-2.09274 -0.993192 0.806296)
(-2.27672 -1.23346 0.704034)
(-2.29765 -1.47404 0.651923)
(-2.25533 -1.68665 0.562528)
(-2.17558 -1.90924 0.411784)
(-1.97365 -2.17636 0.217577)
(-1.59647 -2.44576 0.146492)
(-1.25672 -2.38493 0.564154)
(-0.621112 -1.24095 1.28838)
(0.0807471 -0.122806 1.25953)
(-0.127333 0.630973 1.00102)
(1.05206 0.260244 -0.0313642)
(1.80063 1.40344 -0.088144)
(2.16585 1.6246 -0.0646057)
(2.17322 1.3917 -0.13677)
(2.86417 1.10196 -0.233817)
(3.97505 1.08575 -0.274878)
(5.50392 1.31303 -0.274275)
(6.50164 1.67482 -0.144222)
(6.37763 1.79139 0.18988)
(5.39832 1.42976 0.658934)
(3.74028 0.501941 1.07637)
(1.91236 -0.375954 1.25237)
(0.64156 -0.763882 1.19046)
(-0.453982 -0.937425 1.03849)
(-1.09148 -1.03981 0.887193)
(-1.50062 -1.24308 0.771672)
(-1.75313 -1.46595 0.67129)
(-1.80982 -1.66347 0.567918)
(-1.79839 -1.85208 0.416118)
(-1.68025 -2.05135 0.234053)
(-1.43185 -2.29485 0.18923)
(-1.25033 -2.30012 0.585327)
(-1.02198 -1.36432 1.13714)
(-0.57932 0.151639 1.0573)
(-1.11294 0.628161 1.09227)
(1.04953 0.2453 -0.0287787)
(1.79419 1.3421 -0.0808106)
(2.26709 1.58853 -0.0592185)
(2.40839 1.38074 -0.119236)
(2.88167 1.01113 -0.20616)
(3.63929 0.830941 -0.276676)
(4.93047 0.891751 -0.338116)
(7.09318 1.39772 -0.380302)
(9.00158 2.16727 -0.141339)
(8.50761 2.09498 0.358694)
(6.50571 0.899191 0.913152)
(3.73594 -0.324426 1.15095)
(2.14263 -0.730238 1.06415)
(0.656593 -0.933021 0.925423)
(-0.309587 -1.04614 0.79128)
(-0.952866 -1.212 0.674253)
(-1.40515 -1.41309 0.542156)
(-1.63598 -1.59838 0.40739)
(-1.74008 -1.73794 0.244357)
(-1.73794 -1.84825 0.0499906)
(-1.60501 -2.05614 -0.0229879)
(-1.48079 -2.0974 0.27569)
(-1.49714 -1.52422 0.486279)
(-1.64519 0.269874 0.261089)
(-1.2097 0.162198 0.433057)
(1.04607 0.223728 -0.0271427)
(1.78272 1.2495 -0.0767535)
(2.32378 1.519 -0.0563844)
(2.61253 1.36334 -0.106411)
(2.97607 0.990973 -0.181534)
(3.57058 0.700918 -0.238795)
(4.46324 0.567536 -0.308597)
(5.76376 0.70924 -0.366551)
(8.02567 1.36033 -0.323043)
(11.3362 2.64697 -0.0200298)
(11.4203 1.84723 0.884676)
(6.09528 0.0976869 1.10884)
(4.01377 -0.433073 0.95499)
(2.09647 -0.723704 0.870654)
(0.658108 -0.925565 0.767096)
(-0.319991 -1.14356 0.633829)
(-0.920148 -1.34017 0.466849)
(-1.26715 -1.4818 0.311226)
(-1.47326 -1.54789 0.141306)
(-1.60072 -1.53896 -0.0459009)
(-1.64778 -1.65027 -0.132289)
(-1.68497 -1.73502 0.0644519)
(-1.65961 -1.276 0.383167)
(-1.8199 0.173093 0.233732)
(-0.33836 0.548218 0.331711)
(1.04275 0.19594 -0.0262823)
(1.78111 1.14824 -0.0773731)
(2.36393 1.42967 -0.0573411)
(2.79749 1.32482 -0.0978906)
(3.1278 0.992213 -0.161112)
(3.61882 0.65306 -0.212744)
(4.30571 0.411367 -0.271329)
(5.20122 0.329725 -0.313923)
(6.4472 0.455763 -0.301928)
(8.6898 1.0836 -0.199579)
(16.3694 2.68906 1.0114)
(9.11142 1.25776 1.08808)
(6.25713 0.203695 0.808195)
(4.19051 -0.302988 0.857039)
(2.49515 -0.6314 0.914795)
(1.0496 -0.963568 0.873541)
(0.11675 -1.23537 0.701354)
(-0.419726 -1.37827 0.531533)
(-0.693948 -1.40006 0.392016)
(-0.888948 -1.24281 0.265409)
(-1.06736 -1.16111 0.213091)
(-1.19681 -1.20126 0.398294)
(-1.58344 -1.10693 0.766127)
(-2.20832 0.0898839 0.685666)
(-0.481999 0.510137 0.16861)
(1.03902 0.167016 -0.0258416)
(1.77252 1.0338 -0.0791323)
(2.37819 1.32127 -0.0579749)
(2.91612 1.26307 -0.0898617)
(3.25827 0.9871 -0.144134)
(3.70817 0.637001 -0.193896)
(4.28545 0.328517 -0.24584)
(4.96484 0.130145 -0.289502)
(5.7581 0.023396 -0.271338)
(6.7162 0.0598793 -0.140344)
(9.77069 1.09737 0.609498)
(9.44899 1.83059 0.791676)
(7.67343 0.996792 0.508766)
(5.88732 0.178818 0.572458)
(4.61187 -0.360366 0.766166)
(3.13857 -0.835192 0.959005)
(1.77675 -1.19489 0.94923)
(0.948257 -1.42752 0.822809)
(0.402374 -1.4644 0.685854)
(0.0275893 -1.20874 0.583067)
(-0.261011 -0.946645 0.578851)
(-0.394116 -0.844798 0.750542)
(-0.998424 -1.06067 0.694205)
(-1.94526 -0.223145 0.215251)
(0.666782 0.815237 -0.366922)
(1.03541 0.136661 -0.0257386)
(1.77017 0.921098 -0.0828425)
(2.38843 1.2064 -0.0599466)
(2.99051 1.18751 -0.0846296)
(3.37938 0.971789 -0.130095)
(3.80415 0.643736 -0.174388)
(4.29385 0.303506 -0.22011)
(4.81507 0.0406367 -0.262373)
(5.40064 -0.148821 -0.258712)
(5.91038 -0.216657 -0.124092)
(7.24758 0.479722 0.380744)
(6.85502 1.14231 0.422189)
(6.65557 1.02171 0.24229)
(6.15894 0.484491 0.208094)
(5.47535 -0.155142 0.365085)
(4.42417 -0.782948 0.617006)
(2.97582 -1.26428 0.732256)
(1.82948 -1.60906 0.737674)
(1.0055 -1.74908 0.647198)
(0.291185 -1.45162 0.5355)
(-0.13449 -1.03155 0.482004)
(-0.352631 -0.832024 0.374571)
(-1.15471 -0.986967 -0.0942669)
(-2.09249 -0.435644 -0.200921)
(0.771937 0.653916 -0.258515)
(1.03139 0.108463 -0.025666)
(1.76006 0.805145 -0.0860709)
(2.38989 1.08579 -0.0625823)
(3.04301 1.09854 -0.0814746)
(3.50697 0.932159 -0.120374)
(3.92506 0.642216 -0.158149)
(4.36298 0.305425 -0.19747)
(4.78615 0.00751267 -0.237701)
(5.23702 -0.21761 -0.244809)
(5.61233 -0.320702 -0.141547)
(6.38122 0.105189 0.24181)
(6.08769 0.799288 0.310901)
(5.79223 0.797156 0.0842311)
(5.81519 0.488162 0.00577114)
(5.65306 0.035658 0.117638)
(4.88981 -0.604526 0.320509)
(3.48415 -1.13402 0.445358)
(2.21476 -1.57023 0.535432)
(1.06992 -1.80097 0.547363)
(-0.050444 -1.51579 0.451478)
(-0.659625 -0.984237 0.34181)
(-0.894471 -0.599025 0.042544)
(-1.23445 -0.520439 -0.283151)
(-2.13061 -0.462452 0.013087)
(0.891266 0.349738 -0.195156)
(1.02762 0.0816163 -0.0255656)
(1.75624 0.69522 -0.0905944)
(2.39389 0.963249 -0.0665293)
(3.07489 0.997057 -0.0792023)
(3.58831 0.878199 -0.112441)
(4.01553 0.634104 -0.143899)
(4.43597 0.328185 -0.174134)
(4.78374 0.0347923 -0.207395)
(5.14072 -0.212326 -0.222983)
(5.48689 -0.352446 -0.153558)
(5.98841 -0.111936 0.129166)
(5.84513 0.490199 0.29366)
(5.52811 0.647586 -0.00383566)
(5.61087 0.402131 -0.0653683)
(5.69978 0.153554 0.0336347)
(5.67239 -0.346794 0.177934)
(4.43371 -0.848254 0.292102)
(3.02188 -1.34875 0.409131)
(1.55823 -1.63007 0.534217)
(0.160521 -1.38266 0.531415)
(-0.553757 -0.88255 0.428219)
(-0.713606 -0.406691 0.152312)
(-0.882922 -0.1523 -0.0236405)
(-1.01985 -0.411272 -0.00878995)
(0.938697 0.0563878 -0.144961)
(1.02352 0.0578795 -0.0253934)
(1.74607 0.588194 -0.0943361)
(2.39149 0.838999 -0.0701412)
(3.08932 0.887571 -0.0782031)
(3.6637 0.810061 -0.107359)
(4.13134 0.606153 -0.135031)
(4.5322 0.3347 -0.157231)
(4.84178 0.0666881 -0.182062)
(5.17003 -0.188472 -0.200576)
(5.48827 -0.36256 -0.15667)
(5.89064 -0.243669 0.0597829)
(5.78487 0.245811 0.239934)
(5.52975 0.518055 -0.0515776)
(5.67282 0.336935 -0.0953967)
(5.77622 0.0562571 0.0235933)
(6.20388 -0.224751 0.0957324)
(5.58882 -0.536532 0.149152)
(4.21292 -1.0224 0.248322)
(2.50494 -1.4031 0.466056)
(0.858175 -1.31024 0.599728)
(-0.121583 -0.89851 0.55192)
(-0.493247 -0.37837 0.332105)
(-0.655616 -0.100642 0.215547)
(-0.654072 -0.510672 0.143516)
(0.567844 -0.108375 -0.0842017)
(1.01967 0.0364052 -0.0250056)
(1.74113 0.487407 -0.0990503)
(2.39325 0.716221 -0.0740865)
(3.09896 0.768282 -0.0788394)
(3.71219 0.724453 -0.10239)
(4.20835 0.570401 -0.126985)
(4.62071 0.336384 -0.146384)
(4.93155 0.084638 -0.165725)
(5.21933 -0.165811 -0.180723)
(5.51082 -0.362008 -0.151996)
(5.92943 -0.333227 0.0161667)
(5.68288 0.08652 0.178659)
(5.42613 0.364855 -0.0916514)
(5.81352 0.256956 -0.186309)
(6.18161 -0.0999324 0.0327796)
(6.37212 -0.342374 0.113999)
(6.26686 -0.288483 0.0506062)
(5.4521 -0.571289 0.0859476)
(3.64189 -1.06371 0.343448)
(1.66805 -1.17477 0.589398)
(0.479533 -0.861381 0.597088)
(-0.0873232 -0.371128 0.446849)
(-0.36093 -0.0981971 0.378349)
(-0.712214 -0.487348 0.32172)
(0.317462 -0.16195 -0.0197953)
(1.01512 0.0183527 -0.024448)
(1.72837 0.390152 -0.101801)
(2.39071 0.595993 -0.0772269)
(3.09831 0.643976 -0.0793075)
(3.74424 0.624656 -0.0989525)
(4.2827 0.515965 -0.120727)
(4.72018 0.328538 -0.140209)
(5.07113 0.094788 -0.159549)
(5.38997 -0.176711 -0.171605)
(5.66962 -0.411153 -0.14405)
(5.90648 -0.367249 -0.00896588)
(5.52043 0.0337078 0.137411)
(5.12624 0.199953 -0.0933141)
(5.49998 0.0767258 -0.338215)
(6.69668 -0.295025 -0.0194419)
(6.75551 -0.448968 0.178181)
(6.26363 -0.258197 0.0535509)
(6.02597 -0.160374 -0.0343014)
(4.77065 -0.571509 0.205423)
(2.3101 -0.93294 0.546664)
(1.08337 -0.834279 0.633616)
(0.440301 -0.399933 0.521889)
(0.0840364 -0.0916297 0.534406)
(-0.767985 -0.510714 0.511208)
(0.175491 -0.251502 0.0478815)
(1.01074 0.00280694 -0.0236998)
(1.72154 0.300237 -0.105152)
(2.39347 0.478134 -0.0807561)
(3.10067 0.517219 -0.0801773)
(3.76328 0.510708 -0.0969796)
(4.3285 0.445256 -0.116099)
(4.7946 0.309888 -0.135539)
(5.17605 0.111739 -0.153505)
(5.51335 -0.151452 -0.159014)
(5.79651 -0.376843 -0.127804)
(5.68476 -0.251878 -0.0250509)
(5.39852 0.0612595 0.0783652)
(5.20892 0.100748 -0.0566057)
(5.07415 -0.198892 -0.403904)
(6.46253 -0.614918 -0.182723)
(6.96752 -0.507101 0.151477)
(6.19906 -0.176234 0.0806264)
(5.86546 0.0363785 -0.0710819)
(5.41175 -0.115262 0.0579108)
(2.8902 -0.615871 0.488988)
(1.45691 -0.829915 0.661256)
(0.847169 -0.460678 0.564047)
(0.493955 -0.161866 0.701617)
(-0.880493 -0.635996 0.725686)
(-0.0853556 -0.336793 0.125949)
(1.00588 -0.00863385 -0.0225092)
(1.71255 0.22032 -0.106853)
(2.39336 0.367783 -0.0815489)
(3.10434 0.394259 -0.0796839)
(3.77088 0.392375 -0.0940259)
(4.36483 0.359676 -0.114531)
(4.86718 0.272133 -0.134377)
(5.28739 0.115621 -0.149791)
(5.68168 -0.128825 -0.145508)
(5.83168 -0.265081 -0.105644)
(5.54136 -0.111495 -0.0343759)
(5.39955 0.0850655 0.0216085)
(5.39623 0.0894582 -0.0754139)
(5.49669 -0.339523 -0.312108)
(6.16741 -0.806318 -0.305357)
(6.56745 -0.516992 -0.018025)
(6.06505 -0.0616005 0.0843465)
(5.75834 0.17804 -0.0596096)
(5.89219 0.26865 -0.0349528)
(3.58027 -0.220718 0.418684)
(1.5862 -0.786469 0.668084)
(1.00837 -0.569315 0.566882)
(0.908308 -0.212512 0.8873)
(-0.885749 -0.725031 0.993132)
(-0.454275 -0.38639 0.169076)
(1.00157 -0.0156251 -0.0211419)
(1.71373 0.14839 -0.110628)
(2.4026 0.264388 -0.0843215)
(3.11738 0.27447 -0.0792354)
(3.77224 0.273558 -0.091573)
(4.37541 0.264966 -0.114269)
(4.88254 0.225585 -0.13482)
(5.33898 0.115887 -0.147236)
(5.77129 -0.0649202 -0.12838)
(5.6318 -0.0844005 -0.0847094)
(5.46309 0.0138044 -0.0509482)
(5.47637 0.0920377 -0.0332937)
(5.62375 0.0449384 -0.112134)
(5.87856 -0.300012 -0.282906)
(6.35908 -0.694293 -0.308831)
(6.58858 -0.445965 -0.12541)
(6.19179 0.0361759 0.0432873)
(5.97517 0.306347 -0.00863975)
(6.21538 0.484066 -0.0293467)
(4.39578 0.234878 0.311628)
(1.74344 -0.59378 0.637992)
(0.851779 -0.744407 0.502964)
(1.14579 -0.290241 0.900173)
(-0.692809 -0.676772 1.45621)
(-1.09357 -0.407666 0.227649)
(0.996545 -0.0191918 -0.0198659)
(1.71698 0.0923553 -0.113062)
(2.42315 0.171015 -0.0859666)
(3.13563 0.165276 -0.0768355)
(3.78088 0.157972 -0.0878453)
(4.36242 0.165797 -0.112115)
(4.87452 0.165238 -0.135557)
(5.34409 0.109376 -0.144425)
(5.73659 0.0343758 -0.116138)
(5.49872 0.0664971 -0.0771535)
(5.49224 0.091591 -0.0746801)
(5.65035 0.0885582 -0.0846034)
(5.94988 0.0103308 -0.152693)
(6.25238 -0.245261 -0.28262)
(6.71684 -0.50863 -0.327712)
(7.00447 -0.283086 -0.174582)
(6.80337 0.105865 0.0276228)
(6.64625 0.320784 0.0837917)
(6.83413 0.563366 0.109821)
(5.67193 0.708186 0.255615)
(2.77283 -0.204884 0.634401)
(0.841861 -0.898848 0.513323)
(0.742147 -0.576802 0.78977)
(-0.545702 -0.35517 1.9724)
(-1.71484 -0.147752 0.282326)
(0.992356 -0.0157144 -0.018766)
(1.73822 0.0795463 -0.12625)
(2.45342 0.114626 -0.0940232)
(3.15327 0.0891402 -0.0788534)
(3.76179 0.0741084 -0.0859438)
(4.27645 0.0904229 -0.10935)
(4.76135 0.117899 -0.13461)
(5.21279 0.12313 -0.1394)
(5.5071 0.139713 -0.110214)
(5.41936 0.161937 -0.0869348)
(5.644 0.108524 -0.104536)
(5.97529 0.0560316 -0.129607)
(6.39473 -0.0158396 -0.190723)
(6.72408 -0.188948 -0.284703)
(7.15477 -0.339085 -0.334955)
(7.55928 -0.161875 -0.200323)
(7.45318 0.130786 0.0441062)
(7.31217 0.265599 0.243664)
(7.03235 0.340685 0.351173)
(6.15366 0.691627 0.356527)
(5.74981 0.500324 0.861881)
(1.65614 -0.630462 0.748743)
(-0.112426 -0.760935 0.876526)
(-1.72684 0.231497 1.80934)
(-6.44513 0.500264 2.29771)
(0.984084 -0.00068602 -0.0199195)
(1.77058 0.129332 -0.142776)
(2.48187 0.117939 -0.102896)
(3.14975 0.0705604 -0.0784144)
(3.66692 0.0490678 -0.0766105)
(4.08296 0.0640695 -0.0970643)
(4.46737 0.107549 -0.122772)
(4.9166 0.141507 -0.134156)
(5.34028 0.16695 -0.120699)
(5.74592 0.140725 -0.119385)
(6.25949 0.0641649 -0.141152)
(6.72029 0.0289783 -0.168193)
(7.12693 0.0127479 -0.217996)
(7.40873 -0.0562691 -0.284384)
(7.73377 -0.121468 -0.313986)
(8.10034 0.0027825 -0.18153)
(7.83823 0.194714 0.0717286)
(7.45691 0.196212 0.387921)
(6.97125 0.165936 0.715283)
(4.47911 0.158106 0.737533)
(4.84748 0.593752 0.726504)
(2.11137 0.18489 0.800283)
(-0.236638 -0.317184 1.04632)
(-2.48435 0.630752 1.52977)
(-2.88054 1.53775 2.16691)
(0.98124 0.00210834 -0.0213346)
(1.81635 0.0821142 -0.166636)
(2.51485 0.0554813 -0.114968)
(3.0672 0.0238453 -0.0762766)
(3.40425 0.0199449 -0.0569576)
(3.63569 0.053083 -0.0651059)
(3.96762 0.103133 -0.0905986)
(4.45403 0.129056 -0.110572)
(4.9849 0.114098 -0.114613)
(5.38816 0.0780774 -0.114937)
(5.71613 0.0479572 -0.123493)
(5.99337 0.0536265 -0.136695)
(6.31263 0.0768324 -0.168149)
(6.65966 0.0769878 -0.21515)
(7.07852 0.0598441 -0.232562)
(7.58915 0.112104 -0.111571)
(7.61882 0.194251 0.132047)
(8.26214 0.141606 0.661111)
(6.8714 0.0224612 0.984318)
(3.29134 -0.0081687 0.677277)
(2.31251 0.204895 0.403576)
(2.38998 0.248109 0.319768)
(1.87812 0.0880412 0.447715)
(0.227754 0.455155 1.71391)
(3.36649 0.810886 1.68017)
(1.07998 0.05269 -0.273133)
(1.54294 0.124364 -1.25283)
(-0.0254699 0.0683109 -0.567912)
(-0.731427 0.128614 0.02545)
(-1.39582 0.0907032 0.246106)
(-2.01787 -0.0733005 0.318255)
(-2.39537 -0.12088 0.546529)
(-2.6832 -0.0558803 0.845882)
(-3.17933 -0.00674913 1.21231)
(-3.76823 0.0187936 1.65589)
(-4.35364 -0.0332871 2.05068)
(-4.75489 -0.20853 2.26432)
(-4.5781 -0.334073 2.29934)
(-3.99505 -0.316762 2.33185)
(-3.64967 -0.370055 2.47342)
(-3.39009 -0.544715 2.66797)
(-2.82384 -0.691126 2.92607)
(-2.08449 -0.840107 3.2278)
(-1.20875 -0.989828 3.54768)
(-0.308604 -1.006 3.76987)
(0.406181 -0.78245 3.41444)
(0.398708 -0.379683 2.68879)
(1.67958 0.0949388 2.79886)
(2.72665 0.52324 2.82369)
(1.56488 0.914445 1.72173)
(1.12234 0.124865 -0.234705)
(1.86677 0.629239 -0.732745)
(-1.14032 0.508069 -0.144464)
(-2.49084 0.527969 0.174374)
(-2.99501 0.43047 0.283779)
(-3.44891 0.230734 0.312464)
(-4.06907 0.0438048 0.513228)
(-4.61205 -0.0749457 0.792224)
(-5.01489 -0.116423 1.0873)
(-5.32018 -0.169032 1.41236)
(-5.43234 -0.313041 1.68599)
(-5.39535 -0.60077 1.77272)
(-5.09778 -0.960698 1.65321)
(-4.37558 -1.19777 1.55593)
(-3.67182 -1.30944 1.6387)
(-3.26415 -1.4966 1.75739)
(-2.65003 -1.74558 1.83643)
(-1.86502 -2.01404 1.95781)
(-1.12986 -2.25408 2.18332)
(-0.522616 -2.21872 2.61181)
(0.0756809 -1.70427 3.12843)
(0.846706 -0.753878 2.60341)
(1.92852 -1.02394 2.33191)
(1.2808 -0.606146 2.02206)
(1.54411 0.120177 1.55319)
(1.07401 0.168736 -0.197649)
(1.78023 1.0924 -0.50803)
(-0.545753 1.1225 -0.125605)
(-1.57775 0.903907 0.042376)
(-1.70079 0.49135 0.125756)
(-2.06773 0.0476595 0.196233)
(-2.53105 -0.235835 0.344915)
(-3.09297 -0.407841 0.588649)
(-3.56474 -0.534854 0.878665)
(-3.84308 -0.681523 1.17088)
(-3.92983 -0.91212 1.40045)
(-3.82734 -1.27125 1.43191)
(-3.32637 -1.69798 1.24269)
(-2.34878 -1.94707 1.05312)
(-1.54186 -2.03715 0.964217)
(-1.07693 -2.29107 0.882423)
(-0.52494 -2.57446 0.756106)
(-0.0672454 -2.75175 0.60101)
(0.119855 -2.85583 0.613107)
(-0.0188964 -2.72013 1.145)
(0.000624864 -2.06998 2.20146)
(0.906338 -1.13083 2.36657)
(0.723212 -1.99534 0.071917)
(-0.244422 -1.13834 1.64764)
(-0.554233 -0.23224 0.0867137)
(1.06399 0.220907 -0.164365)
(1.77806 1.4221 -0.361869)
(0.341202 1.58151 -0.147867)
(-0.592903 1.17685 -0.0716469)
(-0.487169 0.685746 0.0247845)
(-0.867641 0.267541 0.105643)
(-1.31039 0.00761942 0.237222)
(-1.84644 -0.18211 0.48761)
(-2.40311 -0.355953 0.816334)
(-2.77639 -0.551744 1.13651)
(-2.938 -0.82409 1.36365)
(-2.81632 -1.22507 1.37374)
(-2.23429 -1.71653 1.15341)
(-1.14853 -2.00348 0.877968)
(-0.184102 -2.06646 0.619219)
(0.243984 -2.31002 0.434417)
(0.4264 -2.55585 0.286845)
(0.510684 -2.63632 0.0766798)
(0.431476 -2.6481 -0.0718223)
(0.0483639 -2.57919 0.191594)
(-0.357841 -2.12505 1.20402)
(0.282568 -1.37925 2.32905)
(-0.199626 -1.8602 -0.848757)
(-0.193526 -0.688887 1.88057)
(-0.170236 0.93798 0.764092)
(1.06346 0.259279 -0.139884)
(1.79197 1.59362 -0.283946)
(1.11068 1.85228 -0.133264)
(0.156195 1.42442 -0.146631)
(0.453935 0.884549 -0.0918231)
(0.138816 0.463734 -0.0113588)
(-0.25453 0.169077 0.1262)
(-0.798337 -0.0413626 0.421293)
(-1.41952 -0.2451 0.809358)
(-1.86175 -0.509693 1.17401)
(-2.1342 -0.891295 1.42168)
(-2.07373 -1.39583 1.427)
(-1.50807 -1.95529 1.18956)
(-0.439635 -2.25022 0.865865)
(0.56813 -2.23486 0.522881)
(0.994067 -2.38973 0.334384)
(1.00738 -2.60303 0.327893)
(0.876397 -2.68554 0.249214)
(0.620028 -2.66409 0.0213263)
(0.226661 -2.66765 -0.170788)
(-0.363082 -2.39553 0.185315)
(-0.251705 -1.76747 1.5083)
(0.35592 -1.24735 0.349993)
(0.564693 -0.647229 1.2213)
(-1.99307 0.729617 0.327954)
(1.06393 0.280444 -0.122256)
(1.7999 1.64909 -0.238728)
(1.61692 1.96725 -0.109661)
(0.858617 1.63207 -0.201863)
(1.22991 1.0745 -0.229342)
(1.02158 0.667066 -0.168172)
(0.74199 0.359598 -0.0434385)
(0.189367 0.151701 0.301212)
(-0.493677 -0.0684136 0.766746)
(-0.993625 -0.381461 1.20241)
(-1.34766 -0.860472 1.49628)
(-1.45981 -1.46733 1.51904)
(-1.02154 -2.08097 1.27227)
(-0.112639 -2.39538 0.909424)
(0.836815 -2.33596 0.531526)
(1.39827 -2.41554 0.298139)
(1.42863 -2.62245 0.351685)
(1.13419 -2.76421 0.464172)
(0.650455 -2.74861 0.369013)
(0.0815453 -2.70671 0.0126743)
(-0.502515 -2.65569 -0.233374)
(-0.63701 -2.10853 0.479452)
(0.771686 -1.18833 1.36904)
(1.07567 -1.0587 -1.36044)
(0.96176 1.67708 1.48859)
(1.06365 0.283907 -0.110371)
(1.80766 1.63898 -0.215285)
(1.95561 2.00318 -0.100691)
(1.35886 1.71635 -0.185204)
(1.65392 1.21217 -0.319058)
(1.87505 0.837042 -0.362882)
(1.66959 0.534929 -0.259631)
(1.19468 0.340541 0.104884)
(0.498652 0.119424 0.644794)
(-0.077932 -0.234655 1.17713)
(-0.449718 -0.789951 1.55257)
(-0.815779 -1.49872 1.61107)
(-0.602325 -2.16677 1.37421)
(0.0616157 -2.50903 1.00675)
(0.823629 -2.44096 0.636982)
(1.47904 -2.47129 0.335447)
(1.66592 -2.66 0.289352)
(1.33848 -2.83429 0.442882)
(0.762308 -2.84673 0.514073)
(0.0847038 -2.78149 0.283409)
(-0.63264 -2.77816 -0.0459124)
(-0.83013 -2.4991 0.117342)
(0.535639 -1.1655 1.19628)
(0.00887501 -0.971019 -4.23992)
(3.02272 1.95352 3.13455)
(1.06188 0.274896 -0.102301)
(1.81049 1.57769 -0.203991)
(2.1759 1.98276 -0.0998188)
(1.82959 1.75323 -0.166845)
(1.91219 1.25988 -0.320428)
(2.31709 0.901888 -0.485752)
(2.54548 0.649813 -0.505717)
(2.17993 0.484943 -0.157016)
(1.56442 0.281696 0.423459)
(0.985082 -0.0866218 1.03681)
(0.582928 -0.677128 1.51057)
(0.000623409 -1.44634 1.62632)
(-0.0906647 -2.16479 1.42441)
(0.262097 -2.53408 1.12298)
(0.713623 -2.4998 0.805968)
(1.2216 -2.52197 0.496294)
(1.56952 -2.73168 0.301006)
(1.2761 -2.92222 0.29015)
(0.724093 -2.97856 0.271872)
(0.070399 -2.88312 0.0997063)
(-0.719939 -2.87925 -0.0613499)
(-1.00096 -2.77686 0.182145)
(-0.0534191 -1.32817 1.12097)
(2.11764 -0.367217 -0.917767)
(2.95364 1.53113 3.51957)
(1.05921 0.255209 -0.0973716)
(1.8184 1.49051 -0.204288)
(2.31963 1.91674 -0.107407)
(2.26316 1.77057 -0.161579)
(2.23239 1.29382 -0.290181)
(2.49288 0.890459 -0.474282)
(3.00699 0.636557 -0.667844)
(3.20395 0.537041 -0.489877)
(2.67593 0.383425 0.126504)
(2.19211 0.0427138 0.805195)
(1.79022 -0.545168 1.38861)
(1.19102 -1.31961 1.60351)
(0.783857 -2.09441 1.4248)
(0.838751 -2.50159 1.22266)
(0.960093 -2.5246 0.979245)
(1.15664 -2.55518 0.711489)
(1.38288 -2.79309 0.467034)
(1.02649 -3.02612 0.29329)
(0.407686 -3.09291 0.0963549)
(-0.223607 -2.93845 -0.220218)
(-1.08592 -2.92165 -0.525205)
(-1.49744 -2.99312 -0.341066)
(-1.01978 -1.66969 0.895479)
(-0.483897 -0.442612 -2.08458)
(1.67248 0.801921 2.23963)
(1.05589 0.229677 -0.0942657)
(1.82134 1.37849 -0.210277)
(2.40851 1.81269 -0.120298)
(2.6163 1.74434 -0.168753)
(2.58063 1.33627 -0.273804)
(2.73539 0.884853 -0.430178)
(3.07342 0.551105 -0.636912)
(3.64453 0.429874 -0.700405)
(3.78195 0.369004 -0.250613)
(3.48676 0.111286 0.51392)
(3.28567 -0.389125 1.26603)
(2.87884 -1.07884 1.63713)
(2.05367 -1.91509 1.43234)
(1.82187 -2.39441 1.33806)
(1.66259 -2.5243 1.17991)
(1.67179 -2.60283 0.96833)
(1.72543 -2.84347 0.711057)
(1.21409 -3.06097 0.471131)
(0.535663 -3.07763 0.257561)
(-0.152746 -2.73468 -0.0835792)
(-1.21294 -2.60269 -0.617944)
(-1.95713 -2.78656 -0.710553)
(-1.85903 -1.5631 0.496876)
(-2.00289 0.578303 -1.20521)
(-1.77789 -0.392095 2.10058)
(1.05217 0.199602 -0.092553)
(1.82488 1.25845 -0.222483)
(2.45948 1.6846 -0.135977)
(2.84871 1.67914 -0.175237)
(2.88809 1.36262 -0.261061)
(3.01509 0.924856 -0.391138)
(3.24405 0.502656 -0.57196)
(3.57906 0.276247 -0.679729)
(4.13912 0.188605 -0.515732)
(4.65811 0.0364402 0.126616)
(4.76068 -0.212721 1.10412)
(4.7999 -0.655568 1.60187)
(3.36363 -1.5483 1.37951)
(2.77563 -2.15935 1.38875)
(2.33298 -2.43785 1.35332)
(2.11171 -2.61244 1.27472)
(2.10341 -2.93017 1.07213)
(1.56986 -3.18742 0.807107)
(0.858048 -3.17723 0.627918)
(0.239137 -2.52694 0.453805)
(-0.687631 -2.00243 -0.0831737)
(-1.63594 -2.2542 -0.520429)
(-2.30848 -1.71196 0.273307)
(-2.09912 0.292508 -0.0483232)
(-1.39497 0.267279 0.808977)
(1.04793 0.168859 -0.0914692)
(1.82142 1.12961 -0.235748)
(2.48298 1.54301 -0.150895)
(3.00483 1.58887 -0.179885)
(3.16762 1.35611 -0.255662)
(3.30349 0.9675 -0.36377)
(3.48667 0.521877 -0.518304)
(3.72611 0.173895 -0.629866)
(3.98315 -0.0142415 -0.539843)
(4.72978 -0.188979 -0.117371)
(5.75437 -0.10247 0.846313)
(6.13462 -0.165345 1.35754)
(4.46907 -1.0489 1.22621)
(3.53112 -1.84325 1.27919)
(2.85842 -2.25471 1.37288)
(2.22143 -2.50179 1.44098)
(1.76522 -2.86856 1.37612)
(1.28959 -3.26987 1.15311)
(0.591783 -3.33268 0.934835)
(0.0255175 -2.5866 0.829538)
(-0.381179 -1.55713 0.575212)
(-0.827224 -1.4647 0.190999)
(-1.84839 -1.40767 0.699052)
(-2.68108 -0.0903161 0.201784)
(-0.814496 0.145657 0.106686)
(1.04354 0.137975 -0.0908632)
(1.8196 1.00357 -0.251459)
(2.49506 1.39695 -0.167278)
(3.11064 1.47616 -0.187265)
(3.39276 1.31332 -0.255438)
(3.57111 0.992755 -0.342385)
(3.75083 0.574657 -0.467441)
(3.92353 0.179258 -0.576857)
(4.13517 -0.12659 -0.537549)
(4.4621 -0.342088 -0.205103)
(5.51814 -0.284239 0.535655)
(7.27442 0.23821 1.11018)
(5.56439 -0.526852 1.01932)
(4.23692 -1.5105 1.07575)
(3.45791 -2.0324 1.25306)
(2.54606 -2.34333 1.38173)
(1.60536 -2.74794 1.42598)
(0.663386 -3.1468 1.30523)
(-0.0908472 -3.26686 1.08912)
(-0.756731 -2.6299 0.955802)
(-0.766305 -1.53493 0.6818)
(-0.566229 -0.994045 0.339718)
(-1.41599 -0.92224 0.553384)
(-2.82759 -0.271313 -0.0343821)
(-0.889794 0.00420036 -0.0125791)
(1.03899 0.109236 -0.0902079)
(1.81187 0.878534 -0.265977)
(2.49643 1.248 -0.18374)
(3.17054 1.34868 -0.194654)
(3.57145 1.24321 -0.256195)
(3.81618 0.979101 -0.332414)
(4.03305 0.6112 -0.432988)
(4.18881 0.228031 -0.529942)
(4.34518 -0.112542 -0.529712)
(4.60327 -0.38755 -0.291671)
(5.12659 -0.414985 0.27295)
(6.82494 0.122745 0.787498)
(7.53487 0.00119128 0.799515)
(5.17708 -1.10951 0.85143)
(4.31877 -1.76424 1.08942)
(3.24272 -2.13745 1.23693)
(1.92091 -2.58669 1.33925)
(0.579789 -3.01052 1.32691)
(-0.480461 -3.1217 1.17371)
(-1.28345 -2.61087 1.05285)
(-1.30581 -1.58216 0.681751)
(-0.92049 -0.888358 0.00291817)
(-1.42746 -0.638173 -0.111541)
(-2.54227 -0.173904 -0.477871)
(-1.21418 -0.218212 -0.123378)
(1.03439 0.0825564 -0.089366)
(1.80607 0.761175 -0.281967)
(2.49598 1.10172 -0.200866)
(3.20143 1.21112 -0.202729)
(3.69774 1.15132 -0.25571)
(4.00782 0.939074 -0.324979)
(4.27457 0.617619 -0.408982)
(4.45304 0.276157 -0.489882)
(4.60241 -0.0447634 -0.511549)
(4.81278 -0.328905 -0.359405)
(5.20408 -0.411127 0.0704525)
(5.98007 -0.125248 0.497598)
(9.46645 0.097613 0.525211)
(6.52223 -0.473399 0.596315)
(5.43379 -1.3641 0.905913)
(4.34746 -1.84424 1.09594)
(2.68673 -2.30731 1.22058)
(0.909774 -2.77075 1.28518)
(-0.567481 -2.95959 1.2385)
(-1.31261 -2.58667 1.16272)
(-1.35598 -1.55935 0.773241)
(-1.02072 -0.68422 -0.007574)
(-1.41184 -0.481865 -0.280238)
(-1.79554 0.0630969 -0.406804)
(-0.554118 0.111625 -0.113483)
(1.02957 0.0591881 -0.0882397)
(1.7942 0.647992 -0.295675)
(2.49048 0.959329 -0.216614)
(3.20943 1.06735 -0.211601)
(3.77836 1.04234 -0.255759)
(4.15695 0.879966 -0.317068)
(4.45336 0.61135 -0.385878)
(4.67905 0.305398 -0.456038)
(4.87585 0.0105967 -0.49235)
(5.08223 -0.245026 -0.402083)
(5.41894 -0.335664 -0.0724202)
(5.86129 -0.244752 0.299308)