/*--------------------------------*- C++ -*----------------------------------*\
  =========                 |
  \\      /  F ield         | OpenFOAM: The Open Source CFD Toolbox
   \\    /   O peration     | Website:  https://openfoam.org
    \\  /    A nd           | Version:  11
     \\/     M anipulation  |
\*---------------------------------------------------------------------------*/
FoamFile
{
    format      ascii;
    class       volScalarField;
    location    "100";
    object      epsilon;
}
// * * * * * * * * * * * * * * * * * * * * * * * * * * * * * * * * * * * * * //

dimensions      [0 2 -3 0 0 0 0];

internalField   nonuniform List<scalar> 
729
(
31.4182
150.412
255.103
321.315
354.979
348.273
318.345
257.127
106.406
6.58057
13.7638
38.8327
63.6322
86.7635
101.077
101.973
90.7207
65.3633
0.145976
0.535212
1.18657
3.95004
10.6554
21.8024
33.3556
41.0386
37.1241
0.0205939
0.0516091
0.139904
0.342027
1.29876
5.20307
13.4603
22.3411
22.6706
0.0185514
0.0573118
0.146543
0.280559
0.669765
2.23299
6.9453
13.5698
14.3387
0.0190724
0.0692077
0.178632
0.340231
0.633267
1.55837
4.52745
8.91937
9.43378
0.0188972
0.0764275
0.184523
0.357067
0.641315
1.31632
3.33217
5.97926
6.1614
0.0185042
0.077673
0.194536
0.377952
0.64531
1.18974
2.75914
4.49221
4.44234
0.0182728
0.0777786
0.19407
0.379599
0.64513
1.07763
2.01453
2.83143
2.61951
117.74
426.608
571.525
665.054
715.043
713.48
661.846
561.8
453.434
8.72533
54.5851
107.113
153.288
187.209
203.916
202.662
199.856
258.778
0.178415
2.51758
10.1089
23.1573
39.0192
54.1473
66.9309
84.009
123.391
0.0499303
0.16713
0.381581
2.16983
6.70259
15.0597
26.4756
41.9779
64.5468
0.0625967
0.0676755
0.168684
0.502245
1.77956
5.54839
12.904
23.5779
36.3723
0.066995
0.0878457
0.177329
0.416034
1.08771
3.0994
7.62306
14.4438
21.8521
0.0712386
0.0883163
0.199641
0.431465
0.945333
2.26262
5.14974
9.28705
13.4081
0.0716468
0.0900322
0.206811
0.453281
0.907668
1.87673
3.85357
6.50228
9.14608
0.0714273
0.0902852
0.21017
0.460009
0.894967
1.61829
2.78384
4.01672
5.18692
151.199
489.749
654.585
772.281
840.53
847.689
796.298
693.917
688.422
12.4116
75.1389
145.64
205.951
249.347
271.138
272.328
278.212
391.548
0.329727
5.27292
19.5218
40.929
63.2863
82.535
98.7594
122.904
183.992
0.101177
0.230321
1.43858
5.52212
14.1879
26.1099
41.1641
62.2336
95.4059
0.113894
0.11975
0.29678
1.04315
3.74834
9.90683
20.1277
34.6452
53.0579
0.120167
0.12058
0.246704
0.619941
1.80507
5.07559
11.5134
20.8148
31.3629
0.123053
0.126179
0.260058
0.575265
1.35136
3.37041
7.44407
13.1304
18.9772
0.123782
0.127132
0.26982
0.57604
1.20237
2.59687
5.31904
8.97407
12.7355
0.123327
0.127776
0.273722
0.581441
1.14758
2.13346
3.73078
5.47647
7.14112
166.972
511.474
686.389
817.017
895.76
908.363
856.573
754.784
788.247
14.9977
83.7904
163.784
231.948
281.163
306.427
309.15
318.047
450.625
0.474121
7.1816
25.3639
51.4379
77.5525
99.5835
118.277
145.704
212.853
0.139182
0.320785
2.35252
8.34091
19.4409
33.6827
51.2168
75.1805
110.989
0.141467
0.153838
0.422457
1.60678
5.45344
13.2724
25.466
42.085
61.8002
0.154983
0.148934
0.308671
0.807589
2.45792
6.72363
14.5223
25.2009
36.4559
0.156113
0.153286
0.306569
0.691188
1.69723
4.28997
9.2478
15.7789
21.9927
0.157805
0.154586
0.316853
0.673394
1.43654
3.1763
6.47139
10.6701
14.6812
0.157062
0.155242
0.320557
0.67253
1.33728
2.52784
4.44596
6.44845
8.19484
172.382
516.691
694.969
829.703
911.731
925.982
874.093
772.547
815.736
15.9223
86.0886
169.037
239.722
290.833
317.245
320.454
330.023
466.712
0.522781
7.80934
27.2331
54.7885
82.1228
105.097
124.616
152.944
221.099
0.155393
0.310459
2.67091
9.34083
21.2355
36.2622
54.6317
79.4124
115.495
0.150798
0.170538
0.469496
1.8312
6.08507
14.473
27.3418
44.561
64.3594
0.16713
0.155875
0.329337
0.880064
2.70709
7.33109
15.6014
26.6733
37.9596
0.167454
0.162961
0.323533
0.733706
1.82755
4.63142
9.89903
16.6678
22.8864
0.169169
0.163904
0.332881
0.707402
1.52218
3.39011
6.88739
11.2371
15.2556
0.168427
0.164561
0.336376
0.704068
1.40494
2.67086
4.70043
6.76888
8.50413
167.318
512.474
686.994
817.617
896.123
908.424
856.459
754.543
787.754
14.7756
83.4184
163.603
231.872
281.042
306.219
308.901
317.751
450.234
0.438301
6.9699
25.2266
51.2086
77.298
99.3199
118.016
145.46
212.585
0.127868
0.83836
2.24703
8.23394
19.2442
33.4748
51.013
74.9972
110.804
0.141994
0.142772
0.40528
1.57407
5.35532
13.1403
25.3233
41.9533
61.6724
0.15348
0.14779
0.302861
0.791882
2.41277
6.642
14.4242
25.1071
36.3671
0.154935
0.151
0.301719
0.681024
1.67217
4.23923
9.18046
15.7134
21.9329
0.156573
0.152445
0.312306
0.664992
1.41998
3.14315
6.42371
10.6218
14.638
0.155791
0.152997
0.315881
0.6646
1.32469
2.5065
4.41642
6.41919
8.16977
150.351
494.32
655.965
773.529
841.174
847.704
795.976
693.388
687.526
12.0235
75.0556
145.51
205.905
249.121
270.711
271.829
277.623
390.827
0.33139
5.26365
19.3277
40.522
62.7969
82.0216
98.2613
122.442
183.517
0.0978192
0.262293
1.26689
5.45319
13.8
25.7213
40.788
61.8923
95.0676
0.110793
0.117183
0.276172
1.00537
3.58187
9.67742
19.8714
34.4029
52.8217
0.118175
0.115683
0.235924
0.596412
1.73729
4.94335
11.3419
20.6448
31.2009
0.119861
0.121541
0.250203
0.557407
1.31332
3.28936
7.329
13.0133
18.868
0.120768
0.122293
0.260208
0.561008
1.17629
2.54403
5.23833
8.88854
12.6561
0.120165
0.122722
0.26367
0.566546
1.12669
2.09901
3.68084
5.42446
7.09458
112.906
440.071
573.924
666.802
715.649
713.338
661.108
560.656
452.875
7.68128
58
107.849
153.518
186.859
203.207
201.904
198.983
258.141
0.231609
3.36318
10.1922
22.7311
38.3466
53.3968
66.2607
83.4311
122.916
0.0479836
0.188976
0.26959
2.27912
6.2463
14.5621
25.9923
41.5824
64.1999
0.059707
0.0596115
0.14739
0.496307
1.61239
5.29721
12.5946
23.3067
36.1285
0.0636225
0.0818714
0.16301
0.392849
1.03095
2.96843
7.42784
14.2595
21.6833
0.0677918
0.0805055
0.17947
0.410109
0.910717
2.18555
5.02643
9.16348
13.296
0.0679274
0.0820015
0.191639
0.432983
0.882591
1.82611
3.76946
6.41363
9.06473
0.0672124
0.0819898
0.193059
0.439339
0.873229
1.58462
2.73291
3.96305
5.13932
31.9434
146.375
257.984
323.288
355.314
347.466
318.411
254.666
106.938
4.15393
24.8318
39.3841
64.2587
85.9423
100.105
101.063
90.2008
65.3855
0.253509
0.356069
1.29036
3.7959
10.178
21.0231
32.6676
40.559
37.0196
0.0188078
0.0449495
0.13255
0.287616
1.19753
4.80562
12.9975
22.0021
22.5563
0.0164596
0.0464995
0.123535
0.250624
0.625339
2.0568
6.64965
13.3354
14.2436
0.0173736
0.0553127
0.147639
0.317045
0.592065
1.4611
4.33728
8.76093
9.36038
0.0175047
0.0617947
0.165705
0.333089
0.606665
1.25004
3.20106
5.87591
6.10903
0.017332
0.0624497
0.167608
0.351586
0.614802
1.13738
2.6652
4.41263
4.40107
0.0172237
0.0621099
0.168497
0.352541
0.614819
1.03263
1.9546
2.78104
2.59333
)
;

boundaryField
{
    inlet
    {
        type            fixedValue;
        value           uniform 14.855;
    }
    outlet
    {
        type            zeroGradient;
    }
    lowerWall
    {
        type            epsilonWallFunction;
        value           nonuniform List<scalar> 
162
(
31.4182
117.74
151.199
166.972
172.382
167.318
150.351
112.906
31.9434
6.58057
8.72533
12.4116
14.9977
15.9223
14.7756
12.0235
7.68128
4.15393
0.145976
0.178415
0.329727
0.474121
0.522781
0.438301
0.33139
0.231609
0.253509
0.0205939
0.0499303
0.101177
0.139182
0.155393
0.127868
0.0978192
0.0479836
0.0188078
0.0185514
0.0625967
0.113894
0.141467
0.150798
0.141994
0.110793
0.059707
0.0164596
0.0190724
0.066995
0.120167
0.154983
0.16713
0.15348
0.118175
0.0636225
0.0173736
0.0188972
0.0712386
0.123053
0.156113
0.167454
0.154935
0.119861
0.0677918
0.0175047
0.0185042
0.0716468
0.123782
0.157805
0.169169
0.156573
0.120768
0.0679274
0.017332
0.0182728
0.0714273
0.123327
0.157062
0.168427
0.155791
0.120165
0.0672124
0.0172237
106.406
453.434
688.422
788.247
815.736
787.754
687.526
452.875
106.938
65.3633
258.778
391.548
450.625
466.712
450.234
390.827
258.141
65.3855
37.1241
123.391
183.992
212.853
221.099
212.585
183.517
122.916
37.0196
22.6706
64.5468
95.4059
110.989
115.495
110.804
95.0676
64.1999
22.5563
14.3387
36.3723
53.0579
61.8002
64.3594
61.6724
52.8217
36.1285
14.2436
9.43378
21.8521
31.3629
36.4559
37.9596
36.3671
31.2009
21.6833
9.36038
6.1614
13.4081
18.9772
21.9927
22.8864
21.9329
18.868
13.296
6.10903
4.44234
9.14608
12.7355
14.6812
15.2556
14.638
12.6561
9.06473
4.40107
2.61951
5.18692
7.14112
8.19484
8.50413
8.16977
7.09458
5.13932
2.59333
)
;
    }
    upperWall
    {
        type            epsilonWallFunction;
        value           nonuniform List<scalar> 
162
(
31.4182
31.9434
6.58057
4.15393
0.145976
0.253509
0.0205939
0.0188078
0.0185514
0.0164596
0.0190724
0.0173736
0.0188972
0.0175047
0.0185042
0.017332
0.0182728
0.0172237
150.412
146.375
13.7638
24.8318
0.535212
0.356069
0.0516091
0.0449495
0.0573118
0.0464995
0.0692077
0.0553127
0.0764275
0.0617947
0.077673
0.0624497
0.0777786
0.0621099
255.103
257.984
38.8327
39.3841
1.18657
1.29036
0.139904
0.13255
0.146543
0.123535
0.178632
0.147639
0.184523
0.165705
0.194536
0.167608
0.19407
0.168497
321.315
323.288
63.6322
64.2587
3.95004
3.7959
0.342027
0.287616
0.280559
0.250624
0.340231
0.317045
0.357067
0.333089
0.377952
0.351586
0.379599
0.352541
354.979
355.314
86.7635
85.9423
10.6554
10.178
1.29876
1.19753
0.669765
0.625339
0.633267
0.592065
0.641315
0.606665
0.64531
0.614802
0.64513
0.614819
348.273
347.466
101.077
100.105
21.8024
21.0231
5.20307
4.80562
2.23299
2.0568
1.55837
1.4611
1.31632
1.25004
1.18974
1.13738
1.07763
1.03263
318.345
318.411
101.973
101.063
33.3556
32.6676
13.4603
12.9975
6.9453
6.64965
4.52745
4.33728
3.33217
3.20106
2.75914
2.6652
2.01453
1.9546
257.127
254.666
90.7207
90.2008
41.0386
40.559
22.3411
22.0021
13.5698
13.3354
8.91937
8.76093
5.97926
5.87591
4.49221
4.41263
2.83143
2.78104
106.406
106.938
65.3633
65.3855
37.1241
37.0196
22.6706
22.5563
14.3387
14.2436
9.43378
9.36038
6.1614
6.10903
4.44234
4.40107
2.61951
2.59333
)
;
    }
}


// ************************************************************************* //
