/*--------------------------------*- C++ -*----------------------------------*\
  =========                 |
  \\      /  F ield         | OpenFOAM: The Open Source CFD Toolbox
   \\    /   O peration     | Website:  https://openfoam.org
    \\  /    A nd           | Version:  11
     \\/     M anipulation  |
\*---------------------------------------------------------------------------*/
FoamFile
{
    format      ascii;
    class       volScalarField;
    location    "100";
    object      k;
}
// * * * * * * * * * * * * * * * * * * * * * * * * * * * * * * * * * * * * * //

dimensions      [0 2 -2 0 0 0 0];

internalField   nonuniform List<scalar> 
729
(
2.48307
6.92613
10.0984
11.7381
12.5235
12.3524
11.6767
10.0258
5.65011
0.593593
2.02451
2.81884
3.9767
4.87619
5.41393
5.44505
5.04638
4.06691
0.0814622
0.112929
0.289265
0.618949
1.20894
1.94833
2.58649
2.97115
2.78355
0.0179716
0.0369226
0.0662906
0.124717
0.295636
0.749389
1.41245
1.98053
2.00171
0.017649
0.0368493
0.0700502
0.108209
0.191382
0.426474
0.908669
1.42037
1.47438
0.0179898
0.043497
0.0775747
0.119181
0.183844
0.33504
0.683069
1.07382
1.1152
0.0179184
0.0446865
0.0822603
0.127542
0.186007
0.299835
0.556874
0.822588
0.839489
0.0176297
0.0457375
0.083242
0.129481
0.186368
0.280286
0.491086
0.679876
0.675024
0.0175075
0.0457463
0.0837502
0.130763
0.186293
0.262353
0.398201
0.499803
0.474708
5.77331
23.5591
31.9404
37.0928
39.9108
40.2353
37.875
32.412
14.7549
0.929922
5.05013
9.36227
13.0978
15.7959
17.2221
17.1925
16.0537
10.1488
0.0885884
0.4235
1.44729
3.17511
5.19009
6.99159
8.28071
8.82094
6.19297
0.0362942
0.087166
0.195858
0.584746
1.55871
2.99469
4.43048
5.37015
4.01988
0.0387142
0.0808945
0.155801
0.313526
0.72118
1.5915
2.69652
3.51646
2.74212
0.0420808
0.0984803
0.178426
0.302936
0.561721
1.09542
1.8634
2.44378
1.95227
0.042831
0.102296
0.189261
0.319409
0.522496
0.886429
1.4151
1.7643
1.40965
0.0432738
0.106134
0.195443
0.328513
0.509946
0.780024
1.15099
1.35615
1.09233
0.0432116
0.106548
0.197277
0.33251
0.506855
0.716685
0.924626
0.970937
0.748463
7.03774
27.6485
37.789
44.551
48.538
49.5162
47.2848
41.3805
19.4695
1.31189
6.78251
12.8068
17.7002
21.1536
23.0048
23.0981
21.7472
13.365
0.121611
0.807151
2.72223
5.41456
8.08763
10.2663
11.7258
12.157
8.07817
0.0542752
0.134581
0.430966
1.29734
2.89175
4.7441
6.43643
7.38125
5.21391
0.0585222
0.120754
0.244314
0.524206
1.26047
2.51379
3.89938
4.78681
3.52603
0.0612369
0.138609
0.241978
0.431212
0.837102
1.624
2.62452
3.27467
2.48356
0.0619759
0.14397
0.254565
0.42264
0.712806
1.23415
1.92862
2.33083
1.77678
0.0622145
0.148426
0.261915
0.427199
0.667627
1.0375
1.51904
1.76079
1.36198
0.062097
0.149022
0.263837
0.430305
0.652564
0.92778
1.19839
1.25179
0.92618
7.57812
29.1852
40.1344
47.6962
52.3128
53.6581
51.424
45.108
21.3053
1.51866
7.60633
14.4613
19.9533
23.8293
25.9329
26.0768
24.4788
14.6754
0.153469
1.0674
3.51455
6.71077
9.72855
12.1232
13.6707
13.9274
8.90094
0.0663046
0.178872
0.631259
1.8402
3.76065
5.84011
7.65906
8.50626
5.76655
0.0684977
0.146473
0.30374
0.700401
1.66963
3.13961
4.66959
5.51952
3.90311
0.0712188
0.162671
0.285249
0.519234
1.04251
1.99419
3.12498
3.75914
2.74549
0.0730496
0.169247
0.294057
0.489208
0.841609
1.47104
2.26502
2.65937
1.96026
0.0730332
0.173464
0.300355
0.485628
0.765281
1.20487
1.75408
1.99376
1.49735
0.0729096
0.174295
0.302452
0.486966
0.738147
1.05669
1.36365
1.40798
1.01515
7.73063
29.5901
40.7913
48.5988
53.4083
54.8612
52.6192
46.1583
21.7974
1.57967
7.83943
14.9491
20.6289
24.6399
26.8253
26.9796
25.2849
15.0224
0.165488
1.15049
3.76576
7.12028
10.2475
12.7128
14.2852
14.462
9.12927
0.0700077
0.194657
0.70426
2.0268
4.04902
6.20107
8.05775
8.85527
5.92155
0.0719245
0.155488
0.32477
0.765499
1.81286
3.35264
4.9277
5.74901
4.01012
0.0746083
0.170429
0.299984
0.55009
1.11531
2.12242
3.29443
3.91211
2.82047
0.076537
0.177315
0.306309
0.510947
0.886172
1.55348
2.37861
2.76282
2.01302
0.0764908
0.181352
0.312417
0.504642
0.797984
1.26229
1.83294
2.06672
1.53616
0.0763708
0.182272
0.31452
0.504985
0.766118
1.09993
1.41785
1.45592
1.04054
7.56684
29.2265
40.1601
47.7163
52.3202
53.6521
51.4119
45.0937
21.296
1.50007
7.56315
14.4428
19.9414
23.8143
25.9128
26.0553
24.4595
14.667
0.144606
1.01595
3.47857
6.67958
9.69736
12.0933
13.6445
13.9084
8.89365
0.0628497
0.14462
0.610341
1.81704
3.72807
5.80946
7.63378
8.4894
5.76028
0.0694089
0.143533
0.297712
0.688879
1.64678
3.11482
4.64827
5.50568
3.89783
0.070769
0.160975
0.28159
0.512505
1.02889
1.97624
3.10819
3.74815
2.74111
0.0727223
0.167405
0.291061
0.484349
0.833139
1.4585
2.25235
2.6509
1.95678
0.0726592
0.171591
0.297173
0.481335
0.759312
1.196
1.74462
1.98704
1.49447
0.0725196
0.172426
0.299301
0.482894
0.733315
1.05047
1.35751
1.40354
1.01312
7.08803
27.8303
37.8507
44.594
48.5514
49.5009
47.2583
41.3519
19.4481
1.33122
6.72609
12.7925
17.685
21.1266
22.9649
23.0558
21.7092
13.347
0.117543
0.792886
2.68815
5.35978
8.0279
10.2076
11.675
12.1194
8.0637
0.0539732
0.13054
0.414331
1.25361
2.83025
4.68567
6.38847
7.34877
5.20146
0.0577203
0.117167
0.236054
0.506026
1.22083
2.4688
3.85982
4.76034
3.51559
0.0597419
0.134636
0.235091
0.419898
0.814903
1.59282
2.59386
3.25404
2.4751
0.0612284
0.139945
0.24799
0.413408
0.698961
1.21307
1.9059
2.31512
1.77006
0.0612137
0.14418
0.255113
0.419122
0.657566
1.02285
1.50211
1.74836
1.35642
0.0610469
0.144804
0.257014
0.422297
0.644054
0.917258
1.18743
1.24346
0.922215
6.03694
24.0808
32.0512
37.1522
39.923
40.2048
37.8296
32.3769
14.7167
1.11266
4.97167
9.39747
13.0939
15.7612
17.1622
17.1319
16.0003
10.1206
0.0853967
0.447154
1.43519
3.11526
5.10572
6.9066
8.2104
8.7729
6.17212
0.034945
0.0834782
0.184081
0.551007
1.47775
2.91646
4.36669
5.33018
4.00343
0.0373425
0.0764429
0.145961
0.296535
0.678926
1.53691
2.64685
3.48472
2.72911
0.0407343
0.092711
0.168541
0.288556
0.539767
1.06144
1.82697
2.41981
1.94198
0.041461
0.0961837
0.178266
0.307722
0.508835
0.865117
1.38991
1.74651
1.40176
0.041801
0.0999594
0.18462
0.317152
0.499402
0.765312
1.13276
1.34225
1.08591
0.0415433
0.100277
0.18618
0.321233
0.497481
0.705935
0.912976
0.96154
0.743909
2.53059
7.19848
10.1492
11.7619
12.519
12.3396
11.632
10.0515
5.61468
1.01624
1.5076
2.93345
3.98203
4.86485
5.38317
5.41923
5.02151
4.04859
0.0946502
0.176327
0.283521
0.609598
1.16938
1.90229
2.55227
2.94808
2.77226
0.0179666
0.03254
0.0586009
0.12141
0.270769
0.713677
1.38117
1.96113
1.99309
0.0162754
0.031646
0.0607586
0.102716
0.17919
0.405929
0.883125
1.40462
1.46731
0.0168727
0.0376738
0.0728896
0.113464
0.175624
0.320708
0.664204
1.06157
1.10927
0.0169724
0.0388013
0.0738632
0.121752
0.179539
0.289878
0.542508
0.813436
0.834719
0.016848
0.039586
0.0766668
0.1235
0.180302
0.272061
0.480157
0.672078
0.670875
0.0168035
0.0394912
0.0763745
0.124539
0.180448
0.255122
0.390503
0.494068
0.471565
)
;

boundaryField
{
    inlet
    {
        type            fixedValue;
        value           uniform 0.375;
    }
    outlet
    {
        type            zeroGradient;
    }
    lowerWall
    {
        type            kqRWallFunction;
        value           nonuniform List<scalar> 
162
(
2.48307
5.77331
7.03774
7.57812
7.73063
7.56684
7.08803
6.03694
2.53059
0.593593
0.929922
1.31189
1.51866
1.57967
1.50007
1.33122
1.11266
1.01624
0.0814622
0.0885884
0.121611
0.153469
0.165488
0.144606
0.117543
0.0853967
0.0946502
0.0179716
0.0362942
0.0542752
0.0663046
0.0700077
0.0628497
0.0539732
0.034945
0.0179666
0.017649
0.0387142
0.0585222
0.0684977
0.0719245
0.0694089
0.0577203
0.0373425
0.0162754
0.0179898
0.0420808
0.0612369
0.0712188
0.0746083
0.070769
0.0597419
0.0407343
0.0168727
0.0179184
0.042831
0.0619759
0.0730496
0.076537
0.0727223
0.0612284
0.041461
0.0169724
0.0176297
0.0432738
0.0622145
0.0730332
0.0764908
0.0726592
0.0612137
0.041801
0.016848
0.0175075
0.0432116
0.062097
0.0729096
0.0763708
0.0725196
0.0610469
0.0415433
0.0168035
5.65011
14.7549
19.4695
21.3053
21.7974
21.296
19.4481
14.7167
5.61468
4.06691
10.1488
13.365
14.6754
15.0224
14.667
13.347
10.1206
4.04859
2.78355
6.19297
8.07817
8.90094
9.12927
8.89365
8.0637
6.17212
2.77226
2.00171
4.01988
5.21391
5.76655
5.92155
5.76028
5.20146
4.00343
1.99309
1.47438
2.74212
3.52603
3.90311
4.01012
3.89783
3.51559
2.72911
1.46731
1.1152
1.95227
2.48356
2.74549
2.82047
2.74111
2.4751
1.94198
1.10927
0.839489
1.40965
1.77678
1.96026
2.01302
1.95678
1.77006
1.40176
0.834719
0.675024
1.09233
1.36198
1.49735
1.53616
1.49447
1.35642
1.08591
0.670875
0.474708
0.748463
0.92618
1.01515
1.04054
1.01312
0.922215
0.743909
0.471565
)
;
    }
    upperWall
    {
        type            kqRWallFunction;
        value           nonuniform List<scalar> 
162
(
2.48307
2.53059
0.593593
1.01624
0.0814622
0.0946502
0.0179716
0.0179666
0.017649
0.0162754
0.0179898
0.0168727
0.0179184
0.0169724
0.0176297
0.016848
0.0175075
0.0168035
6.92613
7.19848
2.02451
1.5076
0.112929
0.176327
0.0369226
0.03254
0.0368493
0.031646
0.043497
0.0376738
0.0446865
0.0388013
0.0457375
0.039586
0.0457463
0.0394912
10.0984
10.1492
2.81884
2.93345
0.289265
0.283521
0.0662906
0.0586009
0.0700502
0.0607586
0.0775747
0.0728896
0.0822603
0.0738632
0.083242
0.0766668
0.0837502
0.0763745
11.7381
11.7619
3.9767
3.98203
0.618949
0.609598
0.124717
0.12141
0.108209
0.102716
0.119181
0.113464
0.127542
0.121752
0.129481
0.1235
0.130763
0.124539
12.5235
12.519
4.87619
4.86485
1.20894
1.16938
0.295636
0.270769
0.191382
0.17919
0.183844
0.175624
0.186007
0.179539
0.186368
0.180302
0.186293
0.180448
12.3524
12.3396
5.41393
5.38317
1.94833
1.90229
0.749389
0.713677
0.426474
0.405929
0.33504
0.320708
0.299835
0.289878
0.280286
0.272061
0.262353
0.255122
11.6767
11.632
5.44505
5.41923
2.58649
2.55227
1.41245
1.38117
0.908669
0.883125
0.683069
0.664204
0.556874
0.542508
0.491086
0.480157
0.398201
0.390503
10.0258
10.0515
5.04638
5.02151
2.97115
2.94808
1.98053
1.96113
1.42037
1.40462
1.07382
1.06157
0.822588
0.813436
0.679876
0.672078
0.499803
0.494068
5.65011
5.61468
4.06691
4.04859
2.78355
2.77226
2.00171
1.99309
1.47438
1.46731
1.1152
1.10927
0.839489
0.834719
0.675024
0.670875
0.474708
0.471565
)
;
    }
}


// ************************************************************************* //
