/*--------------------------------*- C++ -*----------------------------------*\
  =========                 |
  \\      /  F ield         | OpenFOAM: The Open Source CFD Toolbox
   \\    /   O peration     | Website:  https://openfoam.org
    \\  /    A nd           | Version:  11
     \\/     M anipulation  |
\*---------------------------------------------------------------------------*/
FoamFile
{
    format      ascii;
    class       volScalarField;
    location    "100";
    object      nut;
}
// * * * * * * * * * * * * * * * * * * * * * * * * * * * * * * * * * * * * * //

dimensions      [0 2 -1 0 0 0 0];

internalField   nonuniform List<scalar> 
729
(
0.017662
0.028704
0.0359778
0.0385929
0.0397639
0.0394301
0.0385464
0.035183
0.0270018
0.004819
0.0268006
0.0184156
0.0223672
0.0246642
0.0260985
0.0261673
0.0252636
0.0227739
0.0040914
0.00214449
0.00634662
0.0087287
0.0123447
0.0156698
0.0180508
0.0193598
0.0187839
0.00141149
0.00237739
0.00282695
0.0040929
0.00605661
0.00971399
0.0133394
0.0158016
0.0159067
0.00151114
0.00213235
0.00301366
0.00375621
0.00492177
0.00733065
0.0106995
0.0133806
0.0136443
0.00152718
0.00246041
0.00303195
0.00375733
0.00480347
0.00648283
0.00927508
0.0116351
0.0118648
0.00152913
0.0023515
0.00330045
0.00410014
0.00485546
0.00614672
0.00837585
0.010185
0.0102942
0.00151169
0.00242391
0.00320574
0.00399225
0.00484413
0.00594279
0.00786654
0.00926067
0.00923143
0.00150969
0.00242155
0.00325279
0.00405405
0.00484161
0.00574838
0.00708394
0.00794027
0.00774239
0.0254782
0.117093
0.160653
0.186193
0.200489
0.204209
0.195071
0.168295
0.0432119
0.00891976
0.0420507
0.073648
0.100724
0.119951
0.130907
0.131264
0.116058
0.0358217
0.00395881
0.00641158
0.0186486
0.0391809
0.062132
0.0812491
0.0922042
0.0833577
0.0279742
0.00237439
0.00409149
0.00904767
0.0141825
0.0326234
0.053596
0.0667263
0.0618293
0.0225317
0.00215492
0.0087026
0.0129511
0.0176147
0.0263037
0.0410853
0.050714
0.0472007
0.0186056
0.00237886
0.00993622
0.0161576
0.0198525
0.0261078
0.0348438
0.0409943
0.0372121
0.0156974
0.00231763
0.0106639
0.0161478
0.021281
0.0259911
0.031255
0.034997
0.0301655
0.0133382
0.00235231
0.0112604
0.016623
0.0214279
0.0257848
0.029178
0.0309399
0.0254562
0.0117413
0.00235276
0.0113167
0.0166657
0.0216315
0.0258347
0.0285656
0.0276395
0.0211229
0.00972016
0.0294822
0.140479
0.196339
0.231303
0.252263
0.260316
0.252703
0.222089
0.0495563
0.0124799
0.0551008
0.101355
0.13691
0.161513
0.175666
0.17632
0.152993
0.0410575
0.0040368
0.0111199
0.0341643
0.0644669
0.0930199
0.114929
0.125299
0.108225
0.0319206
0.00262037
0.00707748
0.0116197
0.0274312
0.0530451
0.0775791
0.0905762
0.0787912
0.0256445
0.00270635
0.010959
0.0181012
0.0237083
0.0381478
0.057407
0.0679891
0.059524
0.0210894
0.00280857
0.0143399
0.0213608
0.0269944
0.0349387
0.0467657
0.0538444
0.0463665
0.0177002
0.00280928
0.0147843
0.0224269
0.0279457
0.0338388
0.0406718
0.0449701
0.0372378
0.0149719
0.00281428
0.0155957
0.0228817
0.0285136
0.0333635
0.0373047
0.0390433
0.0310934
0.0131089
0.00281401
0.0156421
0.0228877
0.0286609
0.0333969
0.0363119
0.0346449
0.0257515
0.010811
0.0309543
0.14988
0.211206
0.250599
0.274958
0.285269
0.27785
0.24262
0.0518269
0.0138401
0.0621439
0.114916
0.154483
0.181764
0.197523
0.197962
0.169563
0.0430135
0.00447089
0.0142784
0.0438295
0.078796
0.109836
0.132829
0.142208
0.119815
0.0334993
0.00284281
0.00897662
0.0152449
0.0365393
0.0654715
0.0911334
0.103082
0.0866191
0.0269648
0.00298497
0.0125514
0.0196546
0.0274776
0.0460057
0.0668414
0.0770618
0.0651505
0.0221857
0.00294541
0.0159908
0.0237244
0.0300455
0.0397953
0.0532318
0.0605206
0.0504664
0.0186086
0.00307637
0.0168183
0.0253849
0.0311626
0.0375598
0.0453981
0.0499287
0.0403388
0.0157251
0.00304201
0.0175182
0.0256245
0.0315195
0.0366917
0.0411337
0.0427903
0.033529
0.0137444
0.00304607
0.0176117
0.0256833
0.0317343
0.0366697
0.0397546
0.037643
0.0276683
0.0113179
0.0312019
0.152512
0.215482
0.256195
0.281574
0.29253
0.285084
0.248209
0.0524204
0.014105
0.0642489
0.118985
0.159767
0.187878
0.204144
0.204431
0.174349
0.0435183
0.00471469
0.0152543
0.0468652
0.0832814
0.115085
0.138399
0.147382
0.123074
0.0339257
0.0028386
0.0109844
0.0167128
0.0395803
0.0694831
0.0954379
0.106961
0.0888706
0.0273245
0.00308745
0.012759
0.0202191
0.0288002
0.0486079
0.0698967
0.0799288
0.0667535
0.0224877
0.00299751
0.0167708
0.0245923
0.0309454
0.0413556
0.0553013
0.0626093
0.0516404
0.018861
0.00314839
0.017364
0.0261002
0.0320237
0.0386731
0.0468963
0.0514395
0.0412165
0.0159354
0.00311272
0.0180591
0.0263889
0.0323999
0.0376499
0.042301
0.0439019
0.0342097
0.0139216
0.00311662
0.0181699
0.0264676
0.0325976
0.037599
0.0407685
0.0384917
0.0281838
0.0114586
0.0307984
0.150011
0.21129
0.250626
0.274925
0.285186
0.277756
0.242544
0.0518141
0.0137063
0.0617143
0.114751
0.154349
0.181613
0.197351
0.197796
0.169454
0.0430018
0.0042938
0.0133279
0.0431704
0.0784149
0.109492
0.132524
0.141978
0.119689
0.0334866
0.00278028
0.00224528
0.0149203
0.0360879
0.0649997
0.0907396
0.102811
0.0864871
0.0269511
0.00305354
0.0129868
0.0196825
0.0271335
0.0455751
0.066451
0.0767901
0.0650277
0.0221717
0.00293681
0.0157803
0.0235632
0.0298524
0.0394882
0.0529203
0.0602792
0.0503592
0.0185946
0.00307205
0.0167033
0.0252703
0.0310025
0.0373592
0.0451618
0.0497337
0.0402495
0.0157119
0.00303465
0.0173828
0.0254495
0.031356
0.0365428
0.0409583
0.0426443
0.0334547
0.013732
0.00303816
0.0174889
0.0255233
0.031578
0.0365351
0.0396221
0.0375544
0.0276191
0.0113071
0.0300737
0.141016
0.196567
0.231376
0.252208
0.260151
0.252522
0.221951
0.0495117
0.0132652
0.0542481
0.10122
0.136706
0.161247
0.175335
0.175998
0.152782
0.0410226
0.00375226
0.0107492
0.0336487
0.0638038
0.0923651
0.11433
0.124846
0.107964
0.0318886
0.00268025
0.00584709
0.0121954
0.0259367
0.0522411
0.0768233
0.0900542
0.0785299
0.025613
0.00270637
0.0105435
0.0181588
0.0229225
0.0374494
0.0566834
0.0674757
0.0592821
0.0210585
0.00271817
0.0141025
0.0210836
0.0266062
0.0344018
0.0461906
0.0533885
0.0461613
0.017671
0.00281494
0.0145023
0.0221218
0.0275949
0.0334794
0.0402628
0.0446066
0.0370683
0.0149448
0.00279247
0.0152987
0.0225106
0.0281809
0.0330832
0.0370119
0.038766
0.030951
0.0130836
0.00279121
0.0153774
0.0225473
0.0283297
0.0331348
0.0360754
0.0344757
0.0256536
0.010789
0.0290508
0.118594
0.161093
0.186301
0.200442
0.20394
0.19482
0.168274
0.0430413
0.0145055
0.0383546
0.0736969
0.100513
0.119649
0.130452
0.13083
0.115794
0.0357104
0.0028338
0.00535067
0.0181883
0.0384246
0.0611829
0.0804
0.0915621
0.0830235
0.0278935
0.00229044
0.00331881
0.0113125
0.0119892
0.0314645
0.052569
0.0660239
0.0614918
0.0224685
0.00210195
0.00882239
0.0130091
0.0159458
0.0257287
0.0401319
0.050063
0.0468919
0.0185539
0.00234721
0.00944873
0.0156834
0.0190756
0.0254342
0.034159
0.0404431
0.0369575
0.0156534
0.00228216
0.0103424
0.0159363
0.0207807
0.0255867
0.0308198
0.0345904
0.0299589
0.0133006
0.00231511
0.0109665
0.0160073
0.0209077
0.0254322
0.0288665
0.0306366
0.0252816
0.0117078
0.00231098
0.0110379
0.0161592
0.0211389
0.0255075
0.0283039
0.0274496
0.0209965
0.00969118
0.0180428
0.0318608
0.0359347
0.038513
0.0396979
0.0394396
0.0382441
0.035705
0.0265315
0.0223755
0.00823773
0.0196644
0.0222085
0.0247842
0.0260532
0.0261534
0.0251594
0.0225615
0.00318047
0.0078586
0.00560662
0.00881077
0.0120918
0.0154917
0.0179464
0.0192857
0.0186844
0.00154467
0.00212008
0.0023317
0.00461251
0.00551004
0.00953887
0.0132091
0.0157322
0.0158499
0.0014484
0.00193834
0.00268948
0.00378872
0.00462122
0.00721027
0.0105557
0.0133153
0.0136039
0.00147476
0.00230939
0.00323871
0.00365461
0.00468858
0.00633553
0.00915436
0.0115769
0.0118311
0.00148107
0.00219272
0.00296322
0.00400532
0.00478199
0.00604989
0.00827484
0.0101348
0.0102648
0.00147398
0.00225837
0.00315618
0.00390429
0.00475891
0.00585692
0.00778535
0.00921266
0.0092038
0.00147541
0.00225986
0.00311564
0.00395951
0.00476648
0.00567274
0.00702155
0.00789965
0.00771735
)
;

boundaryField
{
    inlet
    {
        type            calculated;
        value           uniform 0.000851986;
    }
    outlet
    {
        type            calculated;
        value           nonuniform List<scalar> 
81
(
0.00150969
0.00235276
0.00281401
0.00304607
0.00311662
0.00303816
0.00279121
0.00231098
0.00147541
0.00242155
0.0113167
0.0156421
0.0176117
0.0181699
0.0174889
0.0153774
0.0110379
0.00225986
0.00325279
0.0166657
0.0228877
0.0256833
0.0264676
0.0255233
0.0225473
0.0161592
0.00311564
0.00405405
0.0216315
0.0286609
0.0317343
0.0325976
0.031578
0.0283297
0.0211389
0.00395951
0.00484161
0.0258347
0.0333969
0.0366697
0.037599
0.0365351
0.0331348
0.0255075
0.00476648
0.00574838
0.0285656
0.0363119
0.0397546
0.0407685
0.0396221
0.0360754
0.0283039
0.00567274
0.00708394
0.0276395
0.0346449
0.037643
0.0384917
0.0375544
0.0344757
0.0274496
0.00702155
0.00794027
0.0211229
0.0257515
0.0276683
0.0281838
0.0276191
0.0256536
0.0209965
0.00789965
0.00774239
0.00972016
0.010811
0.0113179
0.0114586
0.0113071
0.010789
0.00969118
0.00771735
)
;
    }
    lowerWall
    {
        type            nutkWallFunction;
        Cmu             0.09;
        kappa           0.41;
        E               9.8;
        value           nonuniform List<scalar> 
162
(
0.00165098
0.00242621
0.00265595
0.00274728
0.00277241
0.00274541
0.00266461
0.0024762
0.00166531
0.000860587
0.00105559
0.00123458
0.00131966
0.00134354
0.00131228
0.00124283
0.0011454
0.0010991
0.00034832
0.000361921
0.000418213
0.000464998
0.000481247
0.000452564
0.000411773
0.000355907
0.000373024
0.000173833
0.000240495
0.000289273
0.000317034
0.000325013
0.000309366
0.000288534
0.000236341
0.000173811
0.000172378
0.000247737
0.000299427
0.000321788
0.000329051
0.000323738
0.000297542
0.000243664
0.000166009
0.000173915
0.000257409
0.000305707
0.000327571
0.000334608
0.000326624
0.000302268
0.000253594
0.000168813
0.000173594
0.000259506
0.00030739
0.000331395
0.000338535
0.000330715
0.000305688
0.000255662
0.000169276
0.00017229
0.000260734
0.000307931
0.000331361
0.000338441
0.000330584
0.000305654
0.000256622
0.000168698
0.000171735
0.000260562
0.000307665
0.000331104
0.000338198
0.000330293
0.000305273
0.000255894
0.000168491
0.00240242
0.00372637
0.00423106
0.00440946
0.00445585
0.00440858
0.00422893
0.00372195
0.00239553
0.00206759
0.00313983
0.00356134
0.00371716
0.00375715
0.00371619
0.00355914
0.00313582
0.00206333
0.00173923
0.00250523
0.00282871
0.00295697
0.00299142
0.00295586
0.00282639
0.00250137
0.00173601
0.00149656
0.00205664
0.00231588
0.00242491
0.00245446
0.0024237
0.00231335
0.0020528
0.00149362
0.00130199
0.00172738
0.00193725
0.00202916
0.00205436
0.00202791
0.00193463
0.00172364
0.00129915
0.00114658
0.0014796
0.00165113
0.00172835
0.00174971
0.00172709
0.00164856
0.00147604
0.00114381
0.00100757
0.00127565
0.00141746
0.00148236
0.0015004
0.00148116
0.00141501
0.00127239
0.00100497
0.000912416
0.00113582
0.00125582
0.00131119
0.00132656
0.00131004
0.00125349
0.00113278
0.00090986
0.000777395
0.000956309
0.00105365
0.00109857
0.00111099
0.00109757
0.0010516
0.000953657
0.000775049
)
;
    }
    upperWall
    {
        type            nutkWallFunction;
        Cmu             0.09;
        kappa           0.41;
        E               9.8;
        value           nonuniform List<scalar> 
162
(
0.00165098
0.00166531
0.000860587
0.0010991
0.00034832
0.000373024
0.000173833
0.000173811
0.000172378
0.000166009
0.000173915
0.000168813
0.000173594
0.000169276
0.00017229
0.000168698
0.000171735
0.000168491
0.00263662
0.0026835
0.0015043
0.00131527
0.000404321
0.000495356
0.0002424
0.000228712
0.000242179
0.000225797
0.00026135
0.000244655
0.000264606
0.000247993
0.000267444
0.000250285
0.000267467
0.000250009
0.00313269
0.00313988
0.00174925
0.00178133
0.000620544
0.000614907
0.000317003
0.000299612
0.000325103
0.000304612
0.000340624
0.000331063
0.000349875
0.000333077
0.000351776
0.000338797
0.000352756
0.000338206
0.00335593
0.00335904
0.00204653
0.00204778
0.000877119
0.000871065
0.000423048
0.000417896
0.000396524
0.000387209
0.00041438
0.000405195
0.000427391
0.000418433
0.00043034
0.000421161
0.000432278
0.000422773
0.00345688
0.00345632
0.00224614
0.00224375
0.00118949
0.00117161
0.000626726
0.000602164
0.000514187
0.000499004
0.000504864
0.000494456
0.000507561
0.000499445
0.000508008
0.000500411
0.000507916
0.000500595
0.0034352
0.00343356
0.00235603
0.00234991
0.00147824
0.00146222
0.000956847
0.000935825
0.000740413
0.000723969
0.000663438
0.000650373
0.00063076
0.000621142
0.000611704
0.000603469
0.000593573
0.000586072
0.00334788
0.00334201
0.0023622
0.00235708
0.00168198
0.00167179
0.0012768
0.00126385
0.00104454
0.00103108
0.000917347
0.000905734
0.000835948
0.000826068
0.000789483
0.000781441
0.000717666
0.000711321
0.00312236
0.00312601
0.0022816
0.00227646
0.00179173
0.00178537
0.00148932
0.00148266
0.00128006
0.00127357
0.00112702
0.00112115
0.000998293
0.000993224
0.000915394
0.000910603
0.000795827
0.000791659
0.00240242
0.00239553
0.00206759
0.00206333
0.00173923
0.00173601
0.00149656
0.00149362
0.00130199
0.00129915
0.00114658
0.00114381
0.00100757
0.00100497
0.000912416
0.00090986
0.000777395
0.000775049
)
;
    }
}


// ************************************************************************* //
