/*--------------------------------*- C++ -*----------------------------------*\
  =========                 |
  \\      /  F ield         | OpenFOAM: The Open Source CFD Toolbox
   \\    /   O peration     | Website:  https://openfoam.org
    \\  /    A nd           | Version:  11
     \\/     M anipulation  |
\*---------------------------------------------------------------------------*/
FoamFile
{
    format      ascii;
    class       volScalarField;
    location    "100";
    object      p;
}
// * * * * * * * * * * * * * * * * * * * * * * * * * * * * * * * * * * * * * //

dimensions      [0 2 -2 0 0 0 0];

internalField   nonuniform List<scalar> 
729
(
2.91152
3.51377
3.08223
2.08544
1.10129
0.226304
-0.443366
-1.35672
2.31077
0.289819
0.200847
0.197692
0.0546804
-0.123022
-0.214001
-0.0963533
0.157725
1.36199
0.179022
0.19644
0.207596
0.131317
-0.0241588
-0.148999
-0.1153
0.0502337
0.40196
0.121859
0.119579
0.0889674
-0.00420985
-0.146025
-0.25804
-0.262396
-0.21147
-0.0602233
0.0828618
0.0544428
-0.00289475
-0.102868
-0.221963
-0.305129
-0.316032
-0.276228
-0.167016
0.0380789
0.00152911
-0.0604644
-0.152422
-0.245716
-0.299303
-0.304795
-0.246862
-0.161964
0.00871681
-0.0232469
-0.072679
-0.144009
-0.210146
-0.243021
-0.244618
-0.189561
-0.138643
-0.00384875
-0.0222581
-0.0500684
-0.0905047
-0.127885
-0.150631
-0.15124
-0.107167
-0.0837149
-0.00409855
-0.00794303
-0.0127117
-0.0195196
-0.0263078
-0.0387916
-0.0359608
-0.0328652
-0.0533503
3.67738
4.78984
4.10368
2.58341
1.20905
-0.149612
-1.80742
-4.40892
2.23311
-0.113703
-0.197041
-0.27024
-0.33321
-0.347187
-0.289692
0.0044142
0.4572
3.06722
0.173775
0.186393
0.178247
0.104028
-0.0124146
-0.0996665
-0.033156
0.168569
1.16928
0.0874574
0.0632678
0.0438974
-0.0485625
-0.172756
-0.265946
-0.283222
-0.371934
-0.10601
0.0536201
0.0125459
-0.0492056
-0.141696
-0.2458
-0.320836
-0.348204
-0.458566
-0.336917
0.0107658
-0.0365236
-0.0981002
-0.178466
-0.25563
-0.306873
-0.326177
-0.392357
-0.271929
-0.011722
-0.0497082
-0.0969096
-0.157945
-0.212773
-0.246348
-0.260728
-0.305561
-0.217016
-0.0155421
-0.036136
-0.0623859
-0.0972697
-0.129794
-0.15137
-0.16092
-0.191857
-0.139935
-0.00620422
-0.0108835
-0.0148774
-0.02147
-0.0289036
-0.0374627
-0.0423852
-0.0771498
-0.0909287
4.54522
6.21419
5.52753
3.57872
1.79168
-0.0666132
-2.8087
-6.71187
1.5671
-0.225578
-0.355443
-0.59246
-0.675626
-0.591202
-0.395713
0.0927115
0.91101
4.35076
0.118967
0.120393
0.0955462
0.015856
-0.083449
-0.12826
0.0570006
0.455345
1.92386
0.0249759
0.0163253
-0.0201149
-0.108709
-0.223248
-0.305648
-0.296938
-0.397012
-0.037554
0.0171114
-0.0230109
-0.0802926
-0.165253
-0.264679
-0.341648
-0.368845
-0.506148
-0.388451
-0.0160187
-0.0629599
-0.116092
-0.185649
-0.255254
-0.308174
-0.329815
-0.407725
-0.272809
-0.0283908
-0.0658791
-0.107291
-0.159914
-0.206874
-0.239014
-0.254441
-0.307794
-0.205233
-0.0245463
-0.0449439
-0.0681419
-0.0981509
-0.124329
-0.140827
-0.148125
-0.185877
-0.132007
-0.00760583
-0.0126972
-0.0159011
-0.0213214
-0.0267554
-0.0309962
-0.0349166
-0.073753
-0.0927126
5.02153
6.86403
6.21428
4.09328
2.1
-0.0447045
-3.37206
-7.73253
1.05284
-0.238021
-0.469133
-0.773283
-0.845381
-0.711376
-0.453789
0.132612
1.19921
4.93557
0.0717546
0.0691519
0.0163671
-0.0742469
-0.161285
-0.165066
0.122645
0.690896
2.41194
-0.0185897
-0.0243022
-0.0664922
-0.158387
-0.267571
-0.334289
-0.286621
-0.354
0.0647667
-0.0122999
-0.0515108
-0.105547
-0.187701
-0.283963
-0.357079
-0.371909
-0.503709
-0.401256
-0.0354924
-0.0812318
-0.129948
-0.192966
-0.257532
-0.309227
-0.328398
-0.40113
-0.275134
-0.0403151
-0.0768489
-0.114712
-0.161463
-0.202466
-0.232295
-0.249032
-0.302412
-0.20539
-0.0306832
-0.0506484
-0.0718629
-0.0981613
-0.119473
-0.131923
-0.140381
-0.182023
-0.137326
-0.00888684
-0.0140538
-0.0168723
-0.0213504
-0.0252987
-0.0269421
-0.0321344
-0.0759201
-0.101352
5.16096
7.04385
6.41156
4.24213
2.18641
-0.0470025
-3.54658
-8.01036
0.872317
-0.233482
-0.504062
-0.824853
-0.890704
-0.743274
-0.469535
0.144967
1.28525
5.08749
0.0555032
0.0507809
-0.0100129
-0.102254
-0.184173
-0.174129
0.147505
0.772199
2.57372
-0.0321504
-0.0373051
-0.0807777
-0.173575
-0.280783
-0.341531
-0.278958
-0.331169
0.104909
-0.0222051
-0.060915
-0.11363
-0.194575
-0.28981
-0.361132
-0.370735
-0.49852
-0.404913
-0.0418904
-0.0870917
-0.13409
-0.194823
-0.25781
-0.30894
-0.32686
-0.395854
-0.276552
-0.04409
-0.0802345
-0.116698
-0.161337
-0.200367
-0.229407
-0.246269
-0.297515
-0.204341
-0.0326041
-0.0524002
-0.0727036
-0.0976087
-0.117253
-0.128359
-0.136849
-0.177854
-0.137068
-0.00937239
-0.0145414
-0.0170446
-0.0211455
-0.0245636
-0.0253686
-0.0306748
-0.0748706
-0.102155
5.02594
6.86911
6.21385
4.09165
2.09879
-0.0446112
-3.36883
-7.73082
1.05064
-0.229286
-0.459391
-0.768014
-0.840695
-0.706696
-0.450255
0.134027
1.19793
4.93112
0.0726299
0.0692366
0.0188244
-0.0689994
-0.156066
-0.161447
0.123603
0.689374
2.40686
-0.0162821
-0.021626
-0.0623134
-0.151848
-0.261647
-0.330383
-0.284581
-0.352625
0.0638426
-0.0101879
-0.0500243
-0.102017
-0.182638
-0.279174
-0.353617
-0.369834
-0.502238
-0.400716
-0.0336783
-0.0797157
-0.127333
-0.189664
-0.254414
-0.306888
-0.326964
-0.400402
-0.274965
-0.0387171
-0.0755405
-0.112738
-0.159293
-0.200589
-0.230958
-0.248149
-0.302076
-0.205374
-0.0299723
-0.0500878
-0.0706925
-0.0968342
-0.118296
-0.13112
-0.139807
-0.181816
-0.13727
-0.00927127
-0.0144149
-0.0166761
-0.0209971
-0.0249475
-0.0269105
-0.0322091
-0.0759414
-0.101123
4.53813
6.21423
5.52545
3.57735
1.7906
-0.0660521
-2.80304
-6.70605
1.56259
-0.216259
-0.356662
-0.590042
-0.666863
-0.580794
-0.387317
0.0960483
0.908731
4.34157
0.115877
0.11956
0.100532
0.0267229
-0.0722147
-0.120099
0.059862
0.453816
1.91553
0.0242494
0.0193592
-0.0117471
-0.095373
-0.210616
-0.297102
-0.292266
-0.393953
-0.0395039
0.0195573
-0.0200519
-0.0734729
-0.155143
-0.254978
-0.334991
-0.364827
-0.503496
-0.388204
-0.0120251
-0.0589474
-0.110325
-0.178928
-0.249427
-0.304312
-0.327543
-0.406691
-0.272932
-0.0244618
-0.0625842
-0.102888
-0.155387
-0.20345
-0.237063
-0.253334
-0.307605
-0.205462
-0.0224779
-0.0434198
-0.0654342
-0.0952173
-0.121936
-0.139539
-0.147445
-0.185813
-0.132078
-0.00831335
-0.0132803
-0.0152909
-0.0203824
-0.0258147
-0.0307943
-0.0350693
-0.0739014
-0.0924717
3.64438
4.78086
4.10566
2.58924
1.21218
-0.14908
-1.80403
-4.40384
2.22452
-0.120118
-0.235332
-0.284415
-0.323719
-0.33112
-0.277337
0.00855682
0.453965
3.05466
0.153292
0.160943
0.178876
0.121954
0.00693607
-0.0869198
-0.0293317
0.166198
1.15969
0.085928
0.0802213
0.0539777
-0.0275567
-0.152651
-0.253554
-0.277408
-0.369445
-0.109128
0.0608171
0.0214999
-0.0385602
-0.126515
-0.232459
-0.31307
-0.344089
-0.456477
-0.337782
0.0191957
-0.0280346
-0.0880132
-0.16798
-0.24869
-0.304028
-0.32491
-0.392322
-0.272983
-0.00334192
-0.0427073
-0.0890734
-0.15083
-0.208916
-0.245834
-0.260847
-0.306368
-0.217991
-0.0105657
-0.032629
-0.0574392
-0.092626
-0.126824
-0.150648
-0.160996
-0.192431
-0.140388
-0.00640822
-0.0110674
-0.0132898
-0.0197398
-0.0274233
-0.0372921
-0.042742
-0.0774603
-0.0908537
2.82931
3.5025
3.10381
2.1113
1.1181
0.228814
-0.44863
-1.36566
2.29637
0.261001
0.154262
0.178987
0.06376
-0.107694
-0.205468
-0.0988139
0.148019
1.34777
0.161657
0.162378
0.194315
0.142041
-0.00644544
-0.139501
-0.117174
0.0423025
0.392133
0.113819
0.115299
0.091466
0.0115392
-0.127828
-0.248174
-0.260749
-0.214303
-0.0648264
0.0851799
0.0642204
0.00631197
-0.0876184
-0.208604
-0.2993
-0.315127
-0.27837
-0.169792
0.0451446
0.0136508
-0.049578
-0.13949
-0.238233
-0.298609
-0.306944
-0.250636
-0.164843
0.0166841
-0.0122125
-0.063379
-0.134432
-0.206767
-0.244902
-0.248232
-0.193668
-0.141207
0.000990898
-0.0161483
-0.0445175
-0.0849268
-0.125878
-0.151517
-0.153836
-0.109839
-0.0852797
-0.00422467
-0.00722881
-0.0115831
-0.0185148
-0.0256515
-0.0391696
-0.0372406
-0.0339859
-0.0539081
)
;

boundaryField
{
    inlet
    {
        type            zeroGradient;
    }
    outlet
    {
        type            fixedValue;
        value           uniform 0;
    }
    lowerWall
    {
        type            zeroGradient;
    }
    upperWall
    {
        type            zeroGradient;
    }
}


// ************************************************************************* //
