/*--------------------------------*- C++ -*----------------------------------*\
  =========                 |
  \\      /  F ield         | OpenFOAM: The Open Source CFD Toolbox
   \\    /   O peration     | Website:  https://openfoam.org
    \\  /    A nd           | Version:  11
     \\/     M anipulation  |
\*---------------------------------------------------------------------------*/
FoamFile
{
    format      ascii;
    class       surfaceScalarField;
    location    "100";
    object      phi;
}
// * * * * * * * * * * * * * * * * * * * * * * * * * * * * * * * * * * * * * //

dimensions      [0 3 -1 0 0 0 0];

internalField   nonuniform List<scalar> 
1944
(
0.00821816
-0.00202257
-0.00629318
0.0119452
0.00248245
-0.00623757
0.016975
0.000560216
-0.00562036
0.0204175
0.000742333
-0.00419646
0.0227548
0.000327331
-0.00267071
0.0239944
-0.000493754
-0.00074848
0.02321
-0.00181697
0.00260047
0.0196368
-0.00308867
0.00666048
0.0156958
0.0039406
-0.0023087
-0.00397042
0.00422156
0.0010079
-0.00451041
0.00362868
0.0045886
-0.0051767
0.00213724
0.00802175
-0.00406038
0.00135855
0.0106188
-0.00309799
0.00082269
0.0115895
-0.00207006
0.000602638
0.00986022
-0.000815687
0.000725922
0.00338273
0.00271224
0.000675386
0.0194701
-0.000392047
-0.0004607
-0.00378338
0.000223749
0.00154811
-0.00783128
0.00130428
0.00321186
-0.00855908
0.0017071
0.00500543
-0.00762015
0.00175934
0.00615946
-0.00567689
0.00142025
0.00608752
-0.00290244
0.000901062
0.003991
0.0010481
0.00023044
-0.000589073
0.00808977
-0.000798622
0.0210326
-0.002152
0.000942878
-0.00571596
0.000995292
0.00163658
-0.0096759
0.00114386
0.00253344
-0.0104731
0.00101379
0.0034448
-0.00950234
0.000967758
0.00382483
-0.00692507
0.000865106
0.00326053
-0.00302145
0.000680808
0.00143999
0.00257952
0.000287496
-0.00182722
0.0118912
-0.000534799
0.0211784
-0.00197326
0.000926989
-0.00723438
0.000589895
0.00137689
-0.0108378
0.000711795
0.00188557
-0.0116211
0.00063981
0.00235049
-0.0104248
0.000457334
0.00240355
-0.00726958
0.000290598
0.00172006
-0.00263905
0.000300246
-1.88635e-05
0.00408309
0.000235018
-0.00226171
0.0144247
-0.000290626
0.020469
-0.0015523
0.000691933
-0.00835405
0.000427638
0.000888462
-0.0115285
0.000495022
0.00113876
-0.0122788
0.000408796
0.00132486
-0.0108093
0.000199431
0.00119487
-0.0071025
-3.62994e-05
0.000499866
-0.0019192
-2.37974e-05
-0.0011171
0.00563568
6.51754e-05
-0.00241358
0.0159369
-0.000215049
0.0193159
-0.00126006
0.00039804
-0.0089845
0.000232589
0.00041959
-0.0118482
0.000298847
0.000505187
-0.0125865
0.000223581
0.000527642
-0.0108748
4.4475e-05
0.00028985
-0.00668773
-0.000175103
-0.000443727
-0.000980847
-0.000202686
-0.00182397
0.00709016
-7.3068e-05
-0.00240858
0.0167224
-0.000200113
0.0179315
-0.00102375
0.000162416
-0.0092473
0.000100134
8.07553e-05
-0.0119352
0.000169523
4.52108e-05
-0.0126605
0.000110599
-3.41158e-05
-0.0107693
-2.47797e-05
-0.000312808
-0.00621262
-0.000194926
-0.0011289
0.000142056
-0.000305163
-0.00226573
0.00843367
-0.000205826
-0.00233013
0.0170339
-0.000246521
0.0164718
-0.000870144
3.60879e-05
2.19083e-05
-7.4282e-05
9.82005e-05
-0.000183151
5.45914e-05
-0.000330986
-4.84559e-05
-0.000685364
-0.000172357
-0.00158885
-0.000321575
-0.00226969
-0.000295918
-0.00194652
-0.00033673
-0.000683468
0.00498383
-0.00667635
-0.00462698
0.0113086
-0.00808744
-0.00449472
0.0155382
-0.00564604
-0.00421419
0.0185114
-0.00384535
-0.00333107
0.0208811
-0.00288419
-0.0021597
0.0231158
-0.00238247
-0.000602473
0.0255573
-0.00186721
0.00202512
0.025334
0.00216507
0.00471814
0.0244633
0.00481082
0.0010659
-0.00626663
0.00274227
0.00356238
-0.00871571
0.00175409
0.00714097
-0.00790193
0.000806769
0.0103249
-0.00605192
0.00037615
0.0123998
-0.00435213
0.00021264
0.0129534
-0.00265113
0.000315823
0.0111857
-0.000132512
0.000757833
0.0066242
0.00628843
0.00111267
0.0287146
0.00198011
0.000887166
-0.00815372
0.00123802
0.00287859
-0.0112606
0.00185174
0.00474221
-0.0101005
0.00203708
0.00658037
-0.00787532
0.00174061
0.00762947
-0.00524868
0.00126492
0.00730124
-0.00217856
0.000754779
0.00504189
0.00214869
0.000207241
0.00113129
0.00989254
-0.000493166
0.0282679
-0.000574725
0.0010841
-0.00939317
0.00115141
0.00176218
-0.0119141
0.00111925
0.00275414
-0.0111431
0.00106313
0.0037811
-0.00894745
0.00101089
0.00426361
-0.00570293
0.000834956
0.00382873
-0.00160919
0.000544755
0.00227124
0.00389572
9.68357e-05
-0.000274716
0.0124552
-0.000552324
0.0271667
-0.00114722
0.000992029
-0.0104375
0.000645745
0.00150236
-0.0123762
0.000666104
0.00199792
-0.011534
0.000536345
0.00240163
-0.00927764
0.000383979
0.00241194
-0.00569457
0.000271457
0.00188837
-0.000997769
0.000211713
0.000784776
0.00520641
2.73944e-05
-0.000840631
0.0141928
-0.000403163
0.0257778
-0.00100407
0.000668955
-0.0110776
0.000401794
0.000907058
-0.0125119
0.000395123
0.00117147
-0.0116664
0.000278671
0.00131851
-0.00931455
9.0477e-05
0.0011652
-0.0054978
-7.91182e-05
0.000637614
-0.000397567
-9.61419e-05
-0.000237215
0.00625238
-0.000105863
-0.00124746
0.0153318
-0.000343657
0.0241212
-0.000850711
0.000341027
-0.0113919
0.000207629
0.000420216
-0.0125072
0.000217008
0.000527831
-0.0116751
0.000126396
0.000522323
-0.00922488
-3.82346e-05
0.0002896
-0.00521499
-0.000224119
-0.000212971
0.000183643
-0.000280562
-0.000927666
0.00711978
-0.00022536
-0.00146407
0.0159959
-0.000327358
0.0223626
-0.00072899
9.08455e-05
-0.0114777
9.67291e-05
8.26346e-05
-0.0124481
0.000120019
7.88086e-05
-0.0116108
5.14342e-05
-1.7491e-05
-0.00907393
-7.83161e-05
-0.000290665
-0.00488985
-0.000246053
-0.000797177
0.000753924
-0.00036836
-0.0013993
0.00783996
-0.000323558
-0.00155989
0.0162514
-0.000341166
0.0205645
-0.000631781
-4.02973e-05
4.76737e-05
-7.35398e-05
8.02508e-05
-0.000141016
2.47621e-05
-0.000294811
-8.06781e-05
-0.000602295
-0.000208506
-0.00110881
-0.000337937
-0.00152642
-0.000346408
-0.00136828
-0.000342037
-0.000492637
0.00453341
-0.00654259
-0.00258907
0.0117364
-0.00915717
-0.00254038
0.0158899
-0.0059628
-0.00240905
0.018588
-0.00407453
-0.00195826
0.0208283
-0.00311644
-0.001286
0.0232178
-0.00264624
-0.000347375
0.0261681
-0.00205942
0.00113307
0.0250333
0.00326384
0.00258821
0.0266676
0.00317525
0.00328787
-0.00851075
0.00143896
0.00497157
-0.00993611
0.000848507
0.00811004
-0.00856005
0.000262889
0.0109001
-0.00650584
1.48774e-05
0.0126427
-0.0046271
-2.12401e-05
0.0128735
-0.00268598
0.000123294
0.0107413
0.000349213
0.000480244
0.00607312
0.00814217
0.000901339
0.032619
0.00210079
0.00140582
-0.00981302
0.00113623
0.00351594
-0.011562
0.00136655
0.00540985
-0.00967766
0.00125895
0.00704301
-0.00737152
0.000971139
0.00782595
-0.0048071
0.000660274
0.00716718
-0.00164812
0.00037431
0.00451899
0.00309921
0.000104268
0.000358711
0.0119433
-0.000135121
0.0320304
0.000371801
0.000997204
-0.0103952
0.000739204
0.00170168
-0.0118719
0.00072518
0.00280578
-0.0104385
0.000719383
0.00386372
-0.00808015
0.000660549
0.00427454
-0.004886
0.000501921
0.00366565
-0.000773277
0.000277812
0.0018738
0.00499866
-1.15845e-05
-0.000787712
0.0143691
-0.000317215
0.0303498
-0.000254702
0.000944754
-0.0111494
0.000459278
0.00144578
-0.0121355
0.000430953
0.00194903
-0.0107458
0.00034155
0.00233155
-0.00832525
0.0002469
0.00229663
-0.00474655
0.000166817
0.00168172
-3.06663e-05
8.37688e-05
0.000463362
0.00631664
-7.2503e-05
-0.00112171
0.0158425
-0.00029172
0.0285275
-0.000303439
0.000638312
-0.011665
0.000282555
0.000867719
-0.0122168
0.000249391
0.00113036
-0.0108861
0.000157999
0.00124686
-0.00837874
2.86233e-05
0.00103747
-0.00453705
-7.84554e-05
0.000434399
0.000588823
-0.000112098
-0.000494786
0.00729571
-0.000155468
-0.00144464
0.0167359
-0.000286886
0.0265247
-0.000292323
0.000324221
-0.0119392
0.000160427
0.000402924
-0.0122129
0.000136446
0.000500204
-0.0109144
5.91571e-05
0.000459214
-0.00831277
-6.18332e-05
0.00017498
-0.00428689
-0.000188942
-0.000382645
0.00110666
-0.000240026
-0.00111774
0.00803972
-0.000233816
-0.00160853
0.0171949
-0.000295214
0.0244761
-0.00028863
8.23515e-05
-0.012012
8.89995e-05
7.70616e-05
-0.0121615
7.53551e-05
6.63655e-05
-0.0108639
1.27705e-05
-6.36946e-05
-0.00817311
-8.69417e-05
-0.000382557
-0.00400541
-0.000207958
-0.000915771
0.00156651
-0.000294478
-0.00151794
0.00861193
-0.000293258
-0.00164359
0.0172888
-0.000309152
0.0224794
-0.000278601
-4.43483e-05
6.06294e-05
-7.23555e-05
5.18037e-05
-0.000144241
-1.90721e-06
-0.000321647
-8.48933e-05
-0.000654009
-0.000181591
-0.00114452
-0.000269228
-0.00156685
-0.000293283
-0.00139758
-0.000292617
-0.000240872
0.00449571
-0.0062828
-0.000807264
0.0120409
-0.00927038
-0.000816767
0.0162061
-0.00579554
-0.00078034
0.018818
-0.00392327
-0.000648717
0.0210177
-0.00304903
-0.000438501
0.023475
-0.00267187
-0.000134374
0.0263869
-0.00211586
0.000335738
0.0246161
0.00356179
0.000795604
0.0267366
0.00105311
0.00413973
-0.0094079
0.000426712
0.00559327
-0.0101282
0.000251322
0.00856787
-0.00855732
4.84396e-05
0.0111755
-0.006473
-4.46385e-05
0.0127355
-0.00457525
-5.64639e-05
0.0127573
-0.00257168
-3.2308e-08
0.0103281
0.000660782
0.000131606
0.00546299
0.00901838
0.000308488
0.0334904
0.000808752
0.00163672
-0.0103428
0.000438816
0.00392508
-0.0115343
0.000483024
0.00578421
-0.0095442
0.000385135
0.0072486
-0.00722863
0.000261076
0.00781221
-0.00463369
0.000153954
0.0068856
-0.00134013
6.83326e-05
0.00391964
0.00373168
-1.60237e-06
-0.000460746
0.0132984
-3.57865e-05
0.0331675
0.000233189
0.000963126
-0.0108042
0.000238714
0.00175287
-0.0118407
0.000241315
0.00289751
-0.0101853
0.000215096
0.00390142
-0.00774261
0.000169875
0.00417494
-0.00451366
0.000107779
0.00335714
-0.000279473
3.44191e-05
0.00130824
0.0058202
-5.16615e-05
-0.00149926
0.0159111
-0.000122888
0.0314224
-9.20259e-06
0.000922667
-0.0114357
0.000169795
0.00140954
-0.0120334
0.000137751
0.00189536
-0.0104148
8.5728e-05
0.00223411
-0.0078706
3.64433e-05
0.00211916
-0.00423366
2.00508e-06
0.00136496
0.000587109
-2.84813e-05
-3.455e-05
0.00722427
-7.6951e-05
-0.00165268
0.0173662
-0.000128551
0.0295183
-5.18832e-05
0.000620792
-0.0118884
0.000117026
0.00083523
-0.0120788
8.19987e-05
0.00107188
-0.0105196
2.72712e-05
0.0011396
-0.00787503
-3.35952e-05
0.000853592
-0.00394865
-7.65183e-05
0.000140519
0.00127933
-9.04803e-05
-0.000918424
0.00823321
-0.000104918
-0.00186026
0.0181561
-0.00013454
0.0274311
-6.50115e-05
0.000317546
-0.0121267
8.32447e-05
0.000381196
-0.012053
4.8566e-05
0.000452671
-0.0105293
-1.24902e-06
0.000368014
-0.00779193
-5.90346e-05
1.83718e-05
-0.00367659
-0.000110209
-0.000627897
0.00181691
-0.000130411
-0.00145873
0.00896107
-0.000130224
-0.00193931
0.0184831
-0.000141186
0.0252809
-7.74674e-05
8.32814e-05
-0.0121827
6.3421e-05
6.6468e-05
-0.0119907
3.10596e-05
3.50493e-05
-0.0104709
-1.31996e-05
-0.000132182
-0.00764768
-6.3054e-05
-0.00050737
-0.00339571
-0.000112841
-0.00110501
0.00226588
-0.000145171
-0.00177599
0.009487
-0.000147808
-0.00189511
0.0184394
-0.000146031
0.0231902
-8.27912e-05
-3.84462e-05
5.8601e-05
-7.57347e-05
2.62516e-05
-0.000163449
-1.51077e-05
-0.000368819
-5.8564e-05
-0.000742897
-9.9878e-05
-0.0012693
-0.000132517
-0.00173753
-0.000142628
-0.00157647
-0.000135486
-7.67316e-05
0.00448394
-0.00619581
0.000932288
0.0121443
-0.00932666
0.000846906
0.0163162
-0.00574732
0.000792588
0.0189075
-0.0038681
0.000626357
0.0210988
-0.00301849
0.000387418
0.023571
-0.0026717
6.38343e-05
0.026445
-0.00212276
-0.000416826
0.0244692
0.00364398
-0.000874236
0.0266262
-0.00110579
0.00437034
-0.00972806
-0.000415605
0.0057586
-0.0102235
-0.000242727
0.00869439
-0.00856749
-7.00108e-05
0.0112538
-0.00645436
-1.9466e-05
0.0127596
-0.00454822
-3.3807e-05
0.0127135
-0.00252748
-9.92072e-05
0.0101864
0.000761805
-0.000227123
0.00525224
0.00927792
-0.000392821
0.0335633
-0.000877756
0.00171836
-0.0105361
-0.000476388
0.00405193
-0.0115843
-0.000493812
0.00588587
-0.00955896
-0.00046042
0.00729576
-0.00721541
-0.000389511
0.00778766
-0.00459145
-0.000295749
0.00676945
-0.00124211
-0.000199705
0.00369336
0.00394293
-0.000107556
-0.000761628
0.0137448
-4.88704e-05
0.0333318
-0.000297851
0.000959183
-0.0109709
-0.000286199
0.00177166
-0.011872
-0.000286453
0.00292075
-0.0101558
-0.000339628
0.00389968
-0.00767618
-0.000349389
0.00412094
-0.00441775
-0.000287747
0.00322425
-0.000122813
-0.000188513
0.00107897
0.00610632
-7.01429e-05
-0.0017736
0.0164426
3.13781e-05
0.0316015
-5.28402e-05
0.000914907
-0.0115617
-0.000153732
0.00139055
-0.0120345
-0.00017592
0.00186709
-0.0103506
-0.000196576
0.00218954
-0.00775954
-0.000202721
0.00204151
-0.0040898
-0.000177669
0.00122952
0.000787612
-0.000126587
-0.00024159
0.00755003
-4.92651e-05
-0.00186526
0.0179065
3.14171e-05
0.0296958
-1.12171e-05
0.000611501
-0.0119921
-6.30632e-05
0.000820674
-0.0120679
-9.32799e-05
0.00104566
-0.0104374
-0.000110391
0.00109458
-0.00774221
-9.91198e-05
0.000776865
-0.0037754
-7.22852e-05
1.63292e-05
0.00150792
-4.93239e-05
-0.00109775
0.0085765
-1.66237e-05
-0.00203087
0.0186693
3.63903e-05
0.0275992
1.1814e-06
0.000313888
-0.0122177
-3.30895e-06
0.000371868
-0.0120341
-4.20218e-05
0.000433846
-0.0104386
-6.10052e-05
0.00033249
-0.00765124
-4.7632e-05
-4.53269e-05
-0.00349265
-1.39655e-05
-0.000732492
0.00205691
8.81816e-06
-0.0016083
0.00930509
1.77313e-05
-0.00207975
0.0189549
4.52163e-05
0.0254286
1.37674e-05
8.32807e-05
-0.0122702
3.38559e-05
6.26645e-05
-0.0119693
-1.23133e-05
2.42424e-05
-0.0103774
-3.51875e-05
-0.000157058
-0.00750508
-2.70952e-05
-0.000556676
-0.00320992
4.84165e-06
-0.00118805
0.00250693
3.68768e-05
-0.00189546
0.00982091
4.42659e-05
-0.00200751
0.0188678
5.35354e-05
0.0233186
1.98659e-05
-3.67077e-05
5.40551e-05
-7.66451e-05
2.80507e-06
-0.000169204
-2.36659e-05
-0.000384854
-2.08943e-05
-0.00077751
3.26566e-06
-0.00132777
3.46661e-05
-0.00182383
4.80348e-05
-0.00166309
4.78142e-05
1.46314e-05
0.00442177
-0.00644701
0.00299653
0.0120119
-0.0094059
0.00267406
0.0161793
-0.00583764
0.00245897
0.0187968
-0.00394288
0.00194898
0.0210032
-0.00306128
0.00123994
0.0234664
-0.00268181
0.000280518
0.0263812
-0.00212404
-0.00120936
0.0246161
0.00355238
-0.00266367
0.0267322
-0.00322509
0.00415816
-0.00958312
-0.00144535
0.00555922
-0.0103049
-0.000750922
0.00852589
-0.00864506
-0.00023231
0.0111439
-0.00652136
-6.11059e-05
0.0127182
-0.00460679
-6.37319e-05
0.012751
-0.00259485
-0.000220194
0.0103288
0.000641735
-0.000571888
0.00546641
0.00899956
-0.000979456
0.03348
-0.00216068
0.00164182
-0.0104381
-0.00128201
0.00389119
-0.0116585
-0.00140226
0.00573877
-0.00964194
-0.00131534
0.00721461
-0.00729971
-0.00108871
0.00779505
-0.00468716
-0.000796807
0.00688145
-0.00137958
-0.000502194
0.00392264
0.00370081
-0.000208898
-0.000455828
0.0132709
5.69046e-05
0.0331533
-0.000428322
0.000946758
-0.0108962
-0.000780692
0.00173097
-0.0119361
-0.000800047
0.00287376
-0.0102773
-0.000851418
0.00388377
-0.00782623
-0.000834714
0.00416809
-0.00458414
-0.00067566
0.00335825
-0.000332906
-0.000425609
0.00131383
0.00577884
-0.000104005
-0.00149213
0.0158745
0.000233225
0.0314067
0.000201497
0.000924632
-0.0115478
-0.00042994
0.00140759
-0.012129
-0.000469025
0.00189123
-0.0105095
-0.000449898
0.00223612
-0.0079674
-0.000407152
0.00212711
-0.00432094
-0.000331715
0.0013748
0.000520031
-0.000226776
-2.36349e-05
0.00717242
-4.41162e-05
-0.00164308
0.0173216
0.000204062
0.0295022
0.000250241
0.000619616
-0.0120051
-0.000225967
0.000837416
-0.0121755
-0.000265044
0.00107823
-0.010617
-0.000243886
0.00115356
-0.0079823
-0.000159121
0.000871927
-0.00405146
-5.91868e-05
0.000157938
0.00119734
-1.15651e-05
-0.000902346
0.00816966
4.73207e-05
-0.00184836
0.0181044
0.000200315
0.0274164
0.000239139
0.000320458
-0.0122513
-7.77308e-05
0.000387648
-0.012153
-0.000131689
0.000465264
-0.0106306
-0.000124614
0.00038764
-0.00790625
-4.51731e-05
4.16856e-05
-0.00379095
7.25906e-05
-0.000605758
0.0017203
0.000134378
-0.00143906
0.00888477
0.000136749
-0.00192576
0.0184243
0.000212692
0.0252684
0.000236398
8.67298e-05
-0.0123179
1.44299e-05
7.46742e-05
-0.0120963
-5.63502e-05
5.09168e-05
-0.0105765
-6.49113e-05
-0.000109527
-0.00776664
-5.51818e-06
-0.000481073
-0.00351672
0.000103082
-0.00107985
0.002159
0.000197858
-0.00175414
0.00939924
0.000204697
-0.00188052
0.0183738
0.000230929
0.0231803
0.000227755
-3.60564e-05
6.08076e-05
-6.70538e-05
-2.16899e-05
-0.000146281
-4.09932e-05
-0.000344584
2.08148e-06
-0.000714559
8.52373e-05
-0.00124246
0.000177771
-0.00171501
0.000210457
-0.00156208
0.000218523
0.00019143
0.00424578
-0.00639745
0.00517473
0.0116528
-0.00951758
0.00480974
0.015839
-0.00601542
0.00430239
0.0185548
-0.00410176
0.00333181
0.0208082
-0.00313449
0.00211832
0.0232081
-0.00266378
0.000541311
0.026161
-0.00207501
-0.00209012
0.0250319
0.00324451
-0.00478319
0.0266531
-0.00484956
0.0035809
-0.00840194
-0.00299121
0.0048591
-0.010195
-0.00134643
0.00800396
-0.00872497
-0.000664987
0.0108313
-0.00660564
-0.000381394
0.0126113
-0.00469256
-0.000285495
0.0128666
-0.00273461
-0.000405436
0.0107479
0.000310027
-0.000839826
0.00608147
0.00810531
-0.00117613
0.0325922
-0.00202195
0.00160209
-0.00984561
-0.001498
0.00348013
-0.0116688
-0.00182604
0.00530864
-0.00986038
-0.00200897
0.00697035
-0.00752883
-0.00182483
0.00779423
-0.0049284
-0.00138339
0.00716306
-0.0017349
-0.000870509
0.00452785
0.00303439
-0.000298857
0.000368788
0.0118877
0.000431681
0.0319943
0.000537438
0.00103395
-0.0105068
-0.00119436
0.0017116
-0.0119965
-0.00116407
0.00277161
-0.0106119
-0.00116307
0.00383617
-0.00826817
-0.00115985
0.00426868
-0.0050477
-0.000987892
0.00367331
-0.000890566
-0.000673985
0.00188796
0.00491273
-0.000196947
-0.000771672
0.0142945
0.000485904
0.0303107
0.0011125
0.00094961
-0.0112813
-0.000610764
0.00146166
-0.012279
-0.000702277
0.00195735
-0.0109232
-0.000636213
0.00234782
-0.00853454
-0.000531327
0.00232178
-0.00493961
-0.000413232
0.00170644
-0.000174069
-0.000327208
0.0004877
0.00621152
-0.000123582
-0.00110093
0.0157528
0.000334409
0.0284905
0.000970126
0.000652392
-0.0118159
-0.000345682
0.000890606
-0.0123677
-0.000415555
0.00115558
-0.0110671
-0.00036502
0.00128311
-0.00860239
-0.000218122
0.0010795
-0.00475509
-3.90659e-05
0.000471161
0.000418656
5.04248e-06
-0.0004623
0.00716941
2.36121e-05
-0.00142095
0.0166339
0.000278675
0.0264912
0.000817842
0.000345867
-0.0121142
-0.000124788
0.000431093
-0.0123685
-0.000215908
0.000534862
-0.0110995
-0.000195297
0.000503452
-0.00854559
-6.96936e-05
0.000223406
-0.00452243
0.000121054
-0.000339749
0.000911557
0.000205714
-0.00108076
0.00789117
0.000156734
-0.00158347
0.0170815
0.000268479
0.0244466
0.000698149
0.000103762
-0.0122146
1.15159e-05
0.000106267
-0.0123244
-0.000102214
0.000105765
-0.0110548
-0.000108304
-1.57696e-05
-0.00841207
-1.62927e-05
-0.000330628
-0.00425063
0.000147347
-0.000869089
0.00135556
0.000293344
-0.00147895
0.00844441
0.000262083
-0.00161805
0.0171646
0.000287457
0.0224539
0.000602762
-2.66011e-05
8.36525e-05
-4.31877e-05
-4.93556e-05
-0.000103161
-7.24659e-05
-0.000271566
-5.57463e-06
-0.000599416
0.000113983
-0.00109588
0.000258453
-0.00152792
0.000285047
-0.00137318
0.000291265
0.000465117
0.00383385
-0.00464445
0.00625636
0.011186
-0.00899788
0.00653903
0.0155052
-0.00559958
0.00559294
0.0185026
-0.0038552
0.00419509
0.0208831
-0.00289236
0.00262709
0.0231245
-0.00240394
0.00069939
0.0255576
-0.00188769
-0.00264087
0.0253313
0.00213595
-0.00669847
0.0244341
-0.00395956
0.00195782
-0.00482849
-0.00477494
0.00307223
-0.00925117
-0.00221217
0.0069023
-0.00815303
-0.0019239
0.0102112
-0.00622529
-0.00130969
0.0123631
-0.00446585
-0.000859623
0.0129556
-0.00273619
-0.000665555
0.0112045
-0.00019657
-0.000782161
0.00663547
0.00623238
-0.000709763
0.0286689
0.000375032
0.00170035
-0.00759503
-0.000590936
0.00281906
-0.0111965
-0.00102393
0.00460791
-0.0102967
-0.00164531
0.00647574
-0.00813579
-0.00177253
0.00759314
-0.00547657
-0.00148441
0.00730466
-0.00233706
-0.000979451
0.00505843
0.00204151
-0.000291824
0.00114223
0.00981172
0.000766609
0.0282089
0.00213736
0.001256
-0.00902922
-0.00107212
0.00185522
-0.0119005
-0.00107352
0.00277315
-0.011335
-0.00104461
0.00378574
-0.0092641
-0.00104109
0.00428475
-0.00600901
-0.000951812
0.0038558
-0.00181983
-0.000760763
0.00229704
0.00375991
-0.000355914
-0.000255476
0.0123515
0.000497313
0.0271058
0.00196019
0.0010608
-0.0101759
-0.00054043
0.00158972
-0.0124252
-0.000713738
0.00206338
-0.0117457
-0.000701396
0.0024647
-0.00963793
-0.000558738
0.00247768
-0.00604191
-0.000392133
0.00193713
-0.00124045
-0.000364933
0.00082269
0.00504917
-0.000297953
-0.00081531
0.0140738
0.000251333
0.0257206
0.00154018
0.000747849
-0.0109163
-0.000355972
0.000999898
-0.0125886
-0.000505921
0.00124976
-0.0118897
-0.000471315
0.00139877
-0.00969594
-0.000308657
0.00124136
-0.005862
-6.10002e-05
0.000693822
-0.000665012
-2.2091e-05
-0.000192839
0.00607222
-0.00011178
-0.00122056
0.015201
0.00017964
0.0240689
0.00124978
0.000424096
-0.011325
-0.000141537
0.000511696
-0.0125965
-0.00029539
0.000610856
-0.0119029
-0.000280404
0.000603507
-0.00961006
-0.000146965
0.000365048
-0.00559127
9.00429e-05
-0.00015665
-0.00010584
0.000169539
-0.000882472
0.00691608
3.98232e-05
-0.00143762
0.0158548
0.000171016
0.0223145
0.00101568
0.000171584
-0.0114914
8.57991e-06
0.000169055
-0.0125446
-0.000149756
0.000164477
-0.0118425
-0.000162321
6.3277e-05
-0.00945824
-6.51446e-05
-0.000215503
-0.00527714
0.000113545
-0.000739521
0.000450795
0.000262935
-0.00135569
0.00761823
0.000177227
-0.00153478
0.0161009
0.000221459
0.0205196
0.000863468
3.33767e-05
9.29909e-05
1.00739e-05
-6.52931e-05
-5.54464e-05
-9.83929e-05
-0.000212536
-3.1807e-05
-0.000525017
9.14371e-05
-0.00105063
0.000264485
-0.00148517
0.000262781
-0.00134541
0.000313214
0.00067759
0.00331889
0.00304146
0.0127466
-0.00287455
0.0171162
0.00124139
0.0205954
0.000721451
0.0228354
0.000387242
0.0240546
-0.000523185
0.0232309
-0.0018218
0.0196374
-0.00311312
0.0156745
-0.00150444
-0.000312536
-0.000562635
-0.00602777
0.00410827
-0.00533647
0.00781608
-0.00428441
0.0105883
-0.00323961
0.0115888
-0.00218921
0.00987477
-0.000894309
0.00338251
0.0026643
0.0194302
0.00122522
-0.00220842
0.00153232
-0.00736435
0.00312776
-0.00856917
0.00487167
-0.00779282
0.00610411
-0.00595221
0.0060775
-0.00314115
0.00399308
0.000897396
-0.000595558
0.00801659
0.0209717
0.00115111
-0.00446756
0.00188143
-0.00917656
0.00262857
-0.0103607
0.00349608
-0.009699
0.00387903
-0.00728459
0.00331269
-0.00333395
0.00146462
0.00238929
-0.00182124
0.0118001
0.0211107
0.00101892
-0.00603859
0.00158156
-0.0104571
0.00202435
-0.0115057
0.00246258
-0.0106951
0.00250892
-0.00772192
0.00180143
-0.00299038
2.27949e-05
0.00387154
-0.00224883
0.0143233
0.0204025
0.000815227
-0.00721359
0.00110747
-0.0112561
0.00129774
-0.012167
0.00145967
-0.011165
0.00131214
-0.00763449
0.00058114
-0.00227999
-0.00107508
0.005417
-0.00240125
0.0158301
0.0192515
0.000537826
-0.00789132
0.000643217
-0.0116555
0.000669741
-0.0124723
0.000664568
-0.0113053
0.00039745
-0.00727564
-0.000377253
-0.00133313
-0.00179125
0.00687236
-0.00240039
0.0166113
0.0178672
0.000310303
-0.00819065
0.000301238
-0.0117944
0.000214956
-0.0125468
9.86102e-05
-0.0112526
-0.000217992
-0.00684344
-0.00107233
-0.000213664
-0.00224093
0.00821925
-0.00232531
0.0169178
0.0164055
0.000189412
0.000141318
-6.0534e-06
-0.000201148
-0.000585269
-0.00153905
-0.0022501
-0.00194379
)
;

boundaryField
{
    inlet
    {
        type            calculated;
        value           uniform 0;
    }
    outlet
    {
        type            calculated;
        value           nonuniform List<scalar> 
81
(
-0.00930529
-0.0114631
-0.0119806
-0.0121421
-0.0122289
-0.0122886
-0.0122108
-0.011534
-0.00828699
-0.011923
-0.0123968
-0.012105
-0.0119278
-0.0119058
-0.0120408
-0.0122801
-0.0125053
-0.0118115
-0.0126061
-0.0115134
-0.0107653
-0.01037
-0.0102762
-0.0104799
-0.0109633
-0.0117509
-0.0124977
-0.0105729
-0.00888784
-0.00799142
-0.00746856
-0.00732703
-0.00759124
-0.0082359
-0.0092748
-0.0110892
-0.00568563
-0.0045461
-0.00369986
-0.00310321
-0.00292027
-0.00322854
-0.00395134
-0.00494174
-0.00636735
0.00136765
0.00127698
0.0019885
0.00265578
0.00289026
0.0025441
0.00177192
0.000971373
0.00100527
0.00941063
0.0083082
0.00898125
0.00980471
0.0101265
0.00970958
0.00880215
0.00807558
0.00919337
0.0170476
0.0160987
0.0170702
0.0181213
0.0185239
0.0180503
0.0169374
0.0159395
0.0169249
0.0152088
0.0190055
0.0208301
0.0214496
0.0215643
0.0214415
0.0208072
0.0189619
0.0151393
)
;
    }
    lowerWall
    {
        type            calculated;
        value           uniform 0;
    }
    upperWall
    {
        type            calculated;
        value           uniform 0;
    }
}


// ************************************************************************* //
