/*--------------------------------*- C++ -*----------------------------------*\
  =========                 |
  \\      /  F ield         | OpenFOAM: The Open Source CFD Toolbox
   \\    /   O peration     | Website:  https://openfoam.org
    \\  /    A nd           | Version:  11
     \\/     M anipulation  |
\*---------------------------------------------------------------------------*/
FoamFile
{
    format      ascii;
    class       volScalarField::Internal;
    location    "100";
    object      tmp<kEpsilon:G>;
}
// * * * * * * * * * * * * * * * * * * * * * * * * * * * * * * * * * * * * * //

dimensions      [0 2 -3 0 0 0 0];

value           nonuniform List<scalar> 
729
(
4.22131
8.10605
10.7317
12.7482
14.7582
15.3419
15.2476
9.35509
10.5605
0.349008
0.74043
0.816763
1.59312
2.59962
3.4094
3.50557
1.90761
3.98586
0.0112493
0.0757318
0.14369
0.311107
0.561667
0.806629
0.851745
0.912862
3.25142
0.00657825
0.0219084
0.0452648
0.0749861
0.140763
0.218015
0.289063
1.17997
2.49957
0.0086864
0.0274826
0.0533376
0.0734871
0.0943374
0.0976343
0.193762
1.1217
1.82057
0.0103724
0.0331939
0.0642853
0.0860007
0.0871616
0.0530936
0.200436
0.980285
1.31923
0.0114182
0.0367075
0.06788
0.0896776
0.0824759
0.0277326
0.219767
0.81445
0.936783
0.0117599
0.0375331
0.0709039
0.0920136
0.0761147
0.0137019
0.238034
0.703962
0.70827
0.0118126
0.0376063
0.0707857
0.0909775
0.0698775
0.026188
0.233066
0.524363
0.448562
12.9916
863.568
1100.69
1253.66
1324.49
1307.53
1137.28
894.587
35.1231
0.585245
5.32701
4.84976
5.61982
6.07129
6.8663
7.46401
3.44168
15.0143
0.049572
0.562663
0.998216
1.2073
0.655162
0.166506
2.39908
12.7577
9.3174
0.0205304
0.0803749
0.0210554
0.0547208
0.0476016
0.245727
2.22028
9.15035
6.25419
0.0281719
0.0285095
0.021468
0.0729145
0.183437
0.609472
2.20276
5.39443
4.13907
0.0311503
0.0136354
0.019243
0.112066
0.317198
0.81698
2.08009
3.15846
2.78639
0.0337818
0.00523472
0.0287901
0.166255
0.431965
0.948087
1.92836
1.89862
1.89287
0.0343311
0.00161621
0.0426012
0.221513
0.539211
1.04238
1.78647
1.2335
1.38544
0.0342627
0.000346581
0.0584844
0.277844
0.657476
1.14639
1.52039
0.651019
0.860234
15.3986
1010.75
1303.89
1537.3
1662.45
1661.83
1434.76
1097.34
47.7413
0.654085
8.08166
6.06233
6.39203
6.80338
8.14327
8.79902
5.30031
21.5796
0.0931377
0.74239
1.25093
1.28683
0.571207
0.35932
4.72429
20.0793
13.463
0.0353236
0.0166462
0.0297744
0.0762877
0.0605095
0.485295
3.87613
14.3027
9.00769
0.0443245
0.0121064
0.0498375
0.0948177
0.237853
0.868386
3.34252
8.26506
5.86392
0.0474787
0.00362822
0.0428172
0.14691
0.403946
1.10314
2.94998
4.70971
3.8637
0.049994
0.00142345
0.0555712
0.209034
0.547079
1.23561
2.62936
2.8084
2.58375
0.0506802
0.00255574
0.0725693
0.277284
0.675038
1.33702
2.37955
1.83688
1.86636
0.0505103
0.00518271
0.0946378
0.346629
0.806248
1.44034
2.00025
1.00551
1.15309
16.562
1059.7
1379.14
1652.21
1806.97
1816.05
1564.21
1176.5
52.2316
0.684543
8.67976
5.91461
6.49619
7.39032
9.5078
10.5876
5.53338
23.784
0.122034
0.988042
1.52964
1.36326
0.506278
0.541739
6.58992
23.6514
15.1219
0.0449237
0.0173474
0.0471743
0.0941999
0.0745919
0.730947
5.34717
16.4291
10.2693
0.0522158
0.0128393
0.0573666
0.103864
0.292153
1.13829
4.38949
9.29053
6.70721
0.0568914
0.00410055
0.0551718
0.170043
0.481935
1.36818
3.71632
5.16572
4.40368
0.0590454
0.00415575
0.0723576
0.24415
0.634001
1.47792
3.20494
3.02247
2.93259
0.0599086
0.00745523
0.0929624
0.319324
0.768121
1.56069
2.82138
1.96266
2.10858
0.0596192
0.0118803
0.118431
0.39565
0.90318
1.63873
2.30473
1.05179
1.29696
17.051
1070.02
1399.15
1684.41
1848.3
1860.17
1601.26
1198.33
53.3913
0.694806
8.74431
5.75129
6.46285
7.58252
10.0231
11.2897
5.45162
24.2452
0.13106
1.07642
1.62599
1.39048
0.483628
0.615735
7.28255
24.5175
15.4962
0.0490554
0.0167487
0.053213
0.100721
0.0814895
0.830451
5.90084
16.862
10.5889
0.0549625
0.0144912
0.0598512
0.109378
0.317285
1.25178
4.7878
9.43693
6.93162
0.060213
0.00498063
0.0611267
0.180552
0.515368
1.47807
4.00254
5.18649
4.54913
0.0621879
0.00589973
0.0791318
0.25789
0.669137
1.57717
3.41263
3.00471
3.02641
0.0630406
0.00996099
0.10116
0.335818
0.804362
1.64952
2.97565
1.94071
2.17315
0.0627466
0.0150124
0.127617
0.413909
0.940111
1.71534
2.40579
1.02671
1.33522
16.5948
1062.49
1380.06
1653.31
1807.56
1816.03
1563.93
1176.18
52.2063
0.66406
8.47218
5.7813
6.49555
7.40202
9.48652
10.5398
5.52907
23.7665
0.117641
0.881206
1.52367
1.37879
0.51726
0.528753
6.5539
23.6295
15.1054
0.0429424
0.00575284
0.0434233
0.0954594
0.0761039
0.730435
5.33984
16.4316
10.2538
0.0527989
0.0132577
0.0567388
0.106045
0.296162
1.1447
4.39269
9.30633
6.69464
0.0570641
0.00412866
0.0551961
0.171212
0.485506
1.375
3.72143
5.18425
4.39434
0.0593428
0.00441944
0.0723696
0.24449
0.637454
1.48481
3.21217
3.04117
2.92593
0.0602531
0.00791192
0.0928823
0.318958
0.771387
1.56773
2.8308
1.98063
2.10359
0.0600142
0.0126181
0.11832
0.394786
0.906004
1.64593
2.31641
1.06763
1.29391
15.0525
1025.47
1304.86
1539.77
1663.43
1661.46
1434.01
1096.4
47.6931
0.660929
8.35079
5.80408
6.42823
6.84347
8.11785
8.72006
5.29754
21.5428
0.0950814
0.688891
1.2539
1.32126
0.599046
0.339888
4.66804
20.0303
13.4276
0.0348021
0.0205028
0.0249079
0.0797124
0.0665992
0.488692
3.86958
14.2996
8.97643
0.0439031
0.0125103
0.0469886
0.0989638
0.246994
0.883778
3.34949
8.28386
5.83945
0.0475303
0.00370098
0.0413837
0.148786
0.411939
1.11693
2.95692
4.73352
3.84583
0.0498388
0.00134318
0.0535652
0.20878
0.553967
1.24912
2.63912
2.83395
2.57097
0.0506961
0.00241166
0.0700651
0.275311
0.681388
1.3507
2.39249
1.86212
1.85668
0.0506169
0.00520608
0.0914903
0.343038
0.811676
1.45368
2.01729
1.02842
1.14698
11.4812
907.838
1097.95
1256.91
1325.15
1306
1136.22
892.437
35.0779
0.67355
6.76989
4.49791
5.81201
6.15496
6.86015
7.39099
3.44413
14.9719
0.0588409
0.606843
1.0023
1.24953
0.71133
0.152841
2.34378
12.7086
9.27671
0.0186942
0.0985564
0.0163334
0.0628821
0.0580899
0.257019
2.2258
9.1441
6.21913
0.0263445
0.039159
0.0167556
0.0734993
0.191228
0.634587
2.21953
5.40703
4.11192
0.0295501
0.0209679
0.0132762
0.106325
0.329787
0.839039
2.09191
3.17572
2.76642
0.0324302
0.00963089
0.0198492
0.158427
0.44511
0.968392
1.9415
1.91878
1.87866
0.0331472
0.00371429
0.0318677
0.213448
0.553754
1.06269
1.80177
1.25356
1.3746
0.0331543
0.00129271
0.045324
0.267889
0.671755
1.168
1.54038
0.668832
0.853232
2.92096
9.15216
10.7261
13.0501
14.7949
15.376
15.2714
9.30408
10.5889
0.435099
0.542519
0.927882
1.49208
2.57216
3.38044
3.49051
1.90516
3.98053
0.0149473
0.056217
0.156596
0.303104
0.550867
0.793794
0.841584
0.897549
3.23782
0.00436977
0.0192542
0.0440387
0.0688152
0.13925
0.217122
0.278855
1.15919
2.48403
0.00649814
0.023065
0.0475681
0.0701201
0.0953102
0.101049
0.179855
1.10089
1.80696
0.00834127
0.0280296
0.0565913
0.084776
0.0893752
0.0585459
0.186261
0.962425
1.30841
0.00952088
0.0315508
0.0629141
0.0890143
0.0861967
0.0334123
0.206951
0.800182
0.928599
0.00998088
0.0323133
0.0640073
0.0917274
0.0808121
0.0159996
0.226561
0.691525
0.701545
0.010118
0.0323318
0.0641886
0.0909798
0.0754625
0.020595
0.223359
0.514777
0.443748
)
;


// ************************************************************************* //
