/*--------------------------------*- C++ -*----------------------------------*\
  =========                 |
  \\      /  F ield         | OpenFOAM: The Open Source CFD Toolbox
   \\    /   O peration     | Website:  https://openfoam.org
    \\  /    A nd           | Version:  11
     \\/     M anipulation  |
\*---------------------------------------------------------------------------*/
FoamFile
{
    format      ascii;
    class       volVectorField;
    location    "100";
    object      U;
}
// * * * * * * * * * * * * * * * * * * * * * * * * * * * * * * * * * * * * * //

dimensions      [0 1 -1 0 0 0 0];

internalField   nonuniform List<vector> 
729
(
(1.08296 -2.76213 -0.535762)
(0.843303 -1.88459 -0.555019)
(1.45762 -1.28615 -0.554974)
(1.88308 -0.744338 -0.444108)
(2.19007 -0.423718 -0.310081)
(2.3532 -0.237928 -0.148288)
(2.48709 -0.132978 0.131907)
(1.69568 -0.0168864 0.445944)
(3.22407 1.24404 0.335278)
(-0.564652 0.326421 0.162591)
(0.0563987 0.825016 0.337329)
(0.224588 0.420495 0.180787)
(0.637712 0.318114 0.14102)
(0.952358 0.174639 0.098316)
(1.15566 0.0276017 0.0711878)
(1.17297 -0.145841 0.0716238)
(0.665038 -0.19188 0.0526965)
(0.346368 1.75236 0.0443762)
(-0.162319 -0.161839 -0.0712805)
(0.120053 -0.696329 0.0941751)
(0.217759 -0.780962 0.110182)
(0.40793 -0.706084 0.143009)
(0.566059 -0.543469 0.138988)
(0.638246 -0.331179 0.104285)
(0.583114 -0.0389871 0.0374668)
(0.207172 0.502652 -0.0842916)
(-0.233491 2.06641 -0.193004)
(0.0524628 -0.471897 0.0691444)
(0.140069 -0.881258 0.104602)
(0.202144 -0.967851 0.0809193)
(0.296978 -0.884673 0.073562)
(0.369159 -0.656793 0.0740605)
(0.370478 -0.307818 0.0736415)
(0.297538 0.187835 0.035278)
(-0.0119262 1.04275 -0.0878578)
(-0.310531 2.16126 -0.237654)
(0.0601517 -0.672592 0.0387667)
(0.117667 -1.04752 0.0496322)
(0.159483 -1.12322 0.0446461)
(0.211152 -1.01725 0.0289103)
(0.241809 -0.73172 0.016489)
(0.220399 -0.299365 0.0276358)
(0.134831 0.333634 0.0237902)
(-0.133177 1.35677 -0.0725515)
(-0.288391 2.10975 -0.209575)
(0.0477744 -0.791861 0.027925)
(0.0795573 -1.12891 0.0348898)
(0.0979473 -1.2038 0.028578)
(0.122024 -1.07016 0.0113117)
(0.128105 -0.726564 -0.00836899)
(0.0985365 -0.234605 -0.00382141)
(0.0048082 0.48918 0.00574794)
(-0.209678 1.54141 -0.0647821)
(-0.253902 1.99832 -0.17634)
(0.0286098 -0.878323 0.0132769)
(0.0408642 -1.17555 0.020645)
(0.0433122 -1.24904 0.015492)
(0.0501917 -1.08837 0.00118092)
(0.0434931 -0.691033 -0.0171798)
(0.00619687 -0.146452 -0.0196374)
(-0.0925407 0.644659 -0.00880993)
(-0.252084 1.64652 -0.0603687)
(-0.221172 1.86222 -0.146921)
(0.0141255 -0.917061 0.00408422)
(0.0124124 -1.19062 0.0127705)
(0.00423009 -1.26282 0.00823911)
(0.000326488 -1.07856 -0.00318471)
(-0.0126272 -0.636307 -0.0182355)
(-0.0603836 -0.0399571 -0.0287067)
(-0.162233 0.777905 -0.0224244)
(-0.273378 1.70395 -0.0604818)
(-0.191682 1.73461 -0.125726)
(0.00735132 -0.928543 -0.000219948)
(-0.000873271 -1.19202 0.00923515)
(-0.0138124 -1.26257 0.0059)
(-0.0231551 -1.06324 -0.00391118)
(-0.0413735 -0.582913 -0.0168446)
(-0.109134 0.11052 -0.0314509)
(-0.197104 0.928442 -0.0337572)
(-0.252034 1.70314 -0.0614122)
(-0.146357 1.53795 -0.0994927)
(0.448164 -3.94749 -0.50448)
(0.841866 -2.76194 -0.492619)
(1.34092 -1.62826 -0.461032)
(1.72202 -0.940996 -0.362583)
(1.98609 -0.553581 -0.231342)
(2.20263 -0.297723 -0.0539921)
(2.44577 -0.0327404 0.249356)
(2.23337 0.71397 0.56312)
(3.7959 2.52479 0.49073)
(0.0599355 0.85005 0.402836)
(0.178324 0.185731 0.245338)
(0.522891 -0.0844582 0.12057)
(0.89791 -0.152941 0.0592887)
(1.16664 -0.182691 0.033078)
(1.30589 -0.199988 0.0402367)
(1.28867 -0.178215 0.088704)
(0.83338 0.222054 0.122214)
(0.835977 2.6698 0.168108)
(0.00660551 -0.925901 0.109)
(0.211971 -1.21502 0.177772)
(0.365403 -1.03875 0.2316)
(0.573404 -0.788972 0.210206)
(0.734982 -0.544782 0.15583)
(0.781696 -0.286277 0.0930915)
(0.680348 0.0755463 0.0274434)
(0.276379 0.760548 -0.063384)
(0.106754 2.78297 -0.122109)
(0.075808 -0.848386 0.11559)
(0.144222 -1.14084 0.116503)
(0.216216 -1.08022 0.112194)
(0.327108 -0.865118 0.110819)
(0.418401 -0.562228 0.0951889)
(0.429806 -0.190396 0.0642482)
(0.352085 0.319377 0.015145)
(0.0611059 1.1551 -0.0640659)
(-0.0541309 2.8202 -0.175528)
(0.0589673 -1.01965 0.0658364)
(0.128282 -1.23389 0.0768727)
(0.173152 -1.14553 0.0656856)
(0.222936 -0.923598 0.0479011)
(0.249735 -0.577371 0.0327518)
(0.230291 -0.129666 0.0268614)
(0.165807 0.467245 0.00985261)
(-0.0453051 1.36219 -0.0359445)
(-0.0829964 2.6885 -0.140685)
(0.0395383 -1.08284 0.0436457)
(0.0795308 -1.24758 0.0481308)
(0.102663 -1.16143 0.0379587)
(0.127438 -0.931452 0.0168523)
(0.131608 -0.560383 -0.00478452)
(0.100154 -0.0683211 -0.00638582)
(0.0411103 0.578577 -0.0031305)
(-0.118679 1.49071 -0.0210482)
(-0.0926818 2.5022 -0.107506)
(0.0173252 -1.1312 0.022557)
(0.0383885 -1.25233 0.0274266)
(0.0467577 -1.16852 0.0190764)
(0.0548759 -0.928122 0.000816241)
(0.0462912 -0.537032 -0.0208235)
(0.0115965 -0.00988364 -0.0257075)
(-0.0445858 0.672769 -0.0147638)
(-0.163489 1.57463 -0.0155747)
(-0.09953 2.31774 -0.084277)
(0.00240108 -1.14579 0.0098384)
(0.00897997 -1.24589 0.0150473)
(0.008287 -1.16266 0.00870879)
(0.00524241 -0.912125 -0.00527741)
(-0.0107023 -0.501591 -0.0232295)
(-0.0478352 0.0500606 -0.0356175)
(-0.105137 0.753583 -0.0253515)
(-0.189814 1.62792 -0.0166933)
(-0.102694 2.16217 -0.0689561)
(-0.0044902 -1.14574 0.00397663)
(-0.00453774 -1.2402 0.0097147)
(-0.00969185 -1.15389 0.00449709)
(-0.0187528 -0.893976 -0.0064768)
(-0.040127 -0.463345 -0.0193527)
(-0.081482 0.116701 -0.0331285)
(-0.133528 0.824312 -0.0299786)
(-0.180964 1.61624 -0.0220729)
(-0.0916082 1.92355 -0.0518429)
(0.431715 -4.00943 -0.351288)
(0.884278 -2.89258 -0.357415)
(1.37967 -1.66295 -0.333916)
(1.742 -0.955132 -0.266018)
(1.98358 -0.570667 -0.172924)
(2.2069 -0.323493 -0.0465809)
(2.44534 -0.0349114 0.156527)
(2.33081 0.915544 0.368469)
(3.73324 2.94879 0.410047)
(0.324176 0.745106 0.22237)
(0.329143 0.0460184 0.119554)
(0.644936 -0.182014 0.0417107)
(0.976166 -0.234896 0.00981817)
(1.20704 -0.243496 0.00340057)
(1.31515 -0.238207 0.0197428)
(1.25804 -0.17687 0.0641798)
(0.787984 0.355017 0.116466)
(0.794164 2.97991 0.24353)
(0.0334128 -1.18157 0.13589)
(0.26306 -1.29164 0.175828)
(0.441209 -1.03123 0.165823)
(0.634184 -0.769711 0.130516)
(0.769103 -0.523799 0.0900958)
(0.786485 -0.250963 0.0523133)
(0.648319 0.152922 0.0159551)
(0.202933 0.943425 -0.0191699)
(0.0573086 3.12249 0.0283636)
(0.0739363 -0.94134 0.096332)
(0.12999 -1.14008 0.0954087)
(0.215022 -1.01018 0.0924643)
(0.338841 -0.782751 0.0863452)
(0.426565 -0.490625 0.0674707)
(0.42389 -0.116518 0.039889)
(0.325297 0.428094 0.00310432)
(0.00682499 1.36578 -0.0386636)
(-0.0961598 3.17269 -0.0451953)
(0.0558147 -1.10273 0.0563397)
(0.122449 -1.21759 0.0551701)
(0.168686 -1.06975 0.0440709)
(0.218271 -0.829164 0.0318233)
(0.242256 -0.483479 0.0225057)
(0.214301 -0.0344719 0.0139259)
(0.138807 0.582017 -0.00462544)
(-0.0796587 1.54501 -0.0343159)
(-0.109568 2.99918 -0.0506204)
(0.0364336 -1.1439 0.0344189)
(0.0761988 -1.21768 0.0322206)
(0.0994111 -1.08251 0.0212652)
(0.123683 -0.837321 0.00509161)
(0.122893 -0.464834 -0.0084751)
(0.0825658 0.0312794 -0.0116201)
(0.0157429 0.687785 -0.0159747)
(-0.142848 1.64184 -0.0339492)
(-0.109087 2.75994 -0.0488274)
(0.0154342 -1.18754 0.0185899)
(0.0368889 -1.223 0.0175679)
(0.0453974 -1.09206 0.00867707)
(0.0516238 -0.836657 -0.00604715)
(0.0385702 -0.442158 -0.0218925)
(-0.00387637 0.0868777 -0.0277839)
(-0.0648188 0.771529 -0.0265638)
(-0.180939 1.70305 -0.0357804)
(-0.11049 2.53887 -0.0476145)
(0.00115519 -1.19959 0.00949272)
(0.00835364 -1.2172 0.00965177)
(0.00809227 -1.08797 0.00270055)
(0.0032438 -0.822451 -0.00923495)
(-0.0171023 -0.412055 -0.0242039)
(-0.0592432 0.137346 -0.0349807)
(-0.118155 0.839376 -0.0348896)
(-0.200558 1.73956 -0.03866)
(-0.109577 2.36188 -0.0458548)
(-0.00531685 -1.19836 0.00566737)
(-0.00470927 -1.21147 0.00643994)
(-0.00918831 -1.07932 0.000615366)
(-0.0199637 -0.804182 -0.00929794)
(-0.0445979 -0.378 -0.0212525)
(-0.0859817 0.188578 -0.0324727)
(-0.137281 0.891126 -0.0358283)
(-0.184581 1.71205 -0.0379117)
(-0.095001 2.10616 -0.0393346)
(0.444339 -4.05931 -0.169715)
(0.9155 -2.92724 -0.169738)
(1.412 -1.65761 -0.159943)
(1.76892 -0.94439 -0.13076)
(2.00324 -0.567399 -0.0865941)
(2.22907 -0.329558 -0.0241229)
(2.46195 -0.0338395 0.072482)
(2.35849 0.977969 0.169381)
(3.66766 3.07625 0.21103)
(0.390977 0.671466 0.0874362)
(0.396885 0.0199341 0.0511508)
(0.702865 -0.186486 0.0129219)
(1.01381 -0.237608 -0.0040849)
(1.2254 -0.246185 -0.0059063)
(1.31513 -0.240083 0.00527286)
(1.23094 -0.170087 0.0309753)
(0.744124 0.403357 0.0646778)
(0.723815 3.02803 0.156446)
(0.0446254 -1.2361 0.0866466)
(0.293375 -1.28833 0.0963852)
(0.486438 -1.01636 0.0810521)
(0.665701 -0.756662 0.0589889)
(0.779517 -0.509827 0.0382799)
(0.772963 -0.227302 0.0206235)
(0.605118 0.201392 0.00551724)
(0.129675 1.05108 -0.00253407)
(-0.0193414 3.19654 0.0499277)
(0.0732626 -0.983756 0.0505721)
(0.12707 -1.14178 0.0495727)
(0.223581 -0.991507 0.0491774)
(0.348747 -0.758157 0.0429235)
(0.425345 -0.462917 0.0306594)
(0.404939 -0.0751489 0.0149547)
(0.282869 0.503765 -0.00348542)
(-0.0620009 1.5186 -0.0183513)
(-0.166942 3.28261 0.0029897)
(0.0547477 -1.13462 0.0328167)
(0.119684 -1.20912 0.0294524)
(0.164385 -1.03971 0.0223142)
(0.211632 -0.787202 0.0152486)
(0.229891 -0.437089 0.00903062)
(0.190795 0.0227935 0.00223081)
(0.098519 0.670719 -0.00858013)
(-0.134631 1.70378 -0.0198191)
(-0.166462 3.11143 -0.00699919)
(0.0355324 -1.16838 0.0204598)
(0.073875 -1.20511 0.0168997)
(0.0954354 -1.04735 0.00940705)
(0.116598 -0.788955 -0.00027718)
(0.109083 -0.408461 -0.00796802)
(0.0592451 0.0982312 -0.0109717)
(-0.0211654 0.781462 -0.0145787)
(-0.186399 1.79031 -0.021097)
(-0.153446 2.85734 -0.00992311)
(0.0156253 -1.20766 0.0125519)
(0.0355837 -1.20795 0.00935793)
(0.0423753 -1.05429 0.00277093)
(0.045622 -0.785196 -0.0065022)
(0.0270724 -0.381544 -0.0157545)
(-0.0235779 0.157908 -0.0197528)
(-0.0957394 0.865452 -0.0200268)
(-0.215546 1.83837 -0.0223714)
(-0.14515 2.62297 -0.0117643)
(0.00171422 -1.21717 0.00794453)
(0.00797714 -1.20061 0.00531236)
(0.00636223 -1.04911 -0.000246156)
(-0.00111964 -0.770311 -0.00807012)
(-0.0260241 -0.351152 -0.0170259)
(-0.0745371 0.208273 -0.0233511)
(-0.141779 0.930105 -0.0239409)
(-0.227081 1.86208 -0.0234684)
(-0.13622 2.43746 -0.012445)
(-0.00435284 -1.2149 0.00634394)
(-0.00454805 -1.19396 0.00386461)
(-0.0100452 -1.03985 -0.0010968)
(-0.0229488 -0.751795 -0.00774084)
(-0.0511614 -0.318085 -0.0150627)
(-0.0962617 0.25571 -0.0214131)
(-0.152627 0.973936 -0.0233981)
(-0.203053 1.81819 -0.0218256)
(-0.113606 2.1706 -0.0111531)
(0.450585 -4.09845 0.00563895)
(0.92672 -2.93919 0.000905626)
(1.42296 -1.65537 0.000181153)
(1.77876 -0.93983 -0.00132382)
(2.01147 -0.565153 -0.00265642)
(2.23791 -0.330283 -0.0035956)
(2.46818 -0.0322017 -0.00411624)
(2.36577 0.995375 -0.00399466)
(3.64672 3.10881 -0.00266892)
(0.40599 0.647264 -0.00313649)
(0.414613 0.00956535 -0.000337707)
(0.718879 -0.187531 -0.00135659)
(1.02445 -0.23647 -0.00331498)
(1.23063 -0.24519 -0.00455988)
(1.31462 -0.239473 -0.00499365)
(1.22166 -0.167493 -0.00482155)
(0.728783 0.416176 -0.00428406)
(0.700123 3.02751 -0.00354657)
(0.0493869 -1.25109 -0.00337512)
(0.303676 -1.29256 -0.000403674)
(0.499197 -1.01598 -0.00365991)
(0.673922 -0.754274 -0.00640991)
(0.781018 -0.505862 -0.00710765)
(0.766412 -0.219684 -0.00659786)
(0.588301 0.217228 -0.00550912)
(0.102292 1.08613 -0.00431177)
(-0.0475971 3.19738 -0.00335385)
(0.0734368 -1.00371 -0.00223365)
(0.126843 -1.14859 -0.00137512)
(0.226054 -0.992022 -0.00594456)
(0.350873 -0.754913 -0.00895309)
(0.423208 -0.456401 -0.00904938)
(0.396168 -0.0622599 -0.00777035)
(0.265135 0.52946 -0.00616118)
(-0.089164 1.56965 -0.0046571)
(-0.194133 3.29863 -0.00319328)
(0.0548395 -1.14777 0.00090192)
(0.118275 -1.20936 -0.00199999)
(0.161988 -1.03452 -0.0055591)
(0.208349 -0.777556 -0.00837644)
(0.224325 -0.424554 -0.00890667)
(0.180715 0.0411189 -0.00788429)
(0.0813655 0.702056 -0.00641986)
(-0.157069 1.75935 -0.00496028)
(-0.189041 3.1324 -0.00325331)
(0.0349616 -1.17946 0.00263414)
(0.0727898 -1.20453 -0.000523844)
(0.093591 -1.0398 -0.00411549)
(0.113438 -0.776487 -0.00665848)
(0.103317 -0.392105 -0.00756749)
(0.049553 0.120208 -0.00716757)
(-0.0368164 0.815487 -0.00622833)
(-0.204751 1.84368 -0.0050412)
(-0.171489 2.87591 -0.00331254)
(0.0155515 -1.21709 0.00384358)
(0.0350059 -1.20632 0.000309762)
(0.0410995 -1.0455 -0.00307595)
(0.0433002 -0.771363 -0.00532693)
(0.022467 -0.363393 -0.00629644)
(-0.0317188 0.181691 -0.00625793)
(-0.109115 0.90021 -0.00580346)
(-0.230718 1.8877 -0.00495885)
(-0.159593 2.63851 -0.003321)
(0.00182395 -1.22599 0.00465038)
(0.00785307 -1.19853 0.000904789)
(0.00576533 -1.03984 -0.00237829)
(-0.00262777 -0.756142 -0.00447795)
(-0.0293813 -0.332633 -0.00544002)
(-0.0808887 0.232519 -0.00555315)
(-0.152466 0.964335 -0.00535767)
(-0.239376 1.90724 -0.00480321)
(-0.147676 2.45108 -0.00329139)
(-0.00413189 -1.22365 0.00541262)
(-0.00445565 -1.1918 0.00142151)
(-0.010288 -1.03051 -0.00189007)
(-0.0238695 -0.737633 -0.00393027)
(-0.0534811 -0.29978 -0.00484254)
(-0.100654 0.279189 -0.00498312)
(-0.160181 1.00613 -0.00488565)
(-0.212425 1.85845 -0.00456444)
(-0.122068 2.18236 -0.0032584)
(0.437698 -4.06133 0.200619)
(0.911984 -2.93376 0.177016)
(1.40927 -1.65978 0.162419)
(1.76652 -0.945354 0.128828)
(2.00142 -0.567754 0.0815423)
(2.22792 -0.329788 0.0171146)
(2.4614 -0.0340873 -0.0804924)
(2.35794 0.977461 -0.177234)
(3.66739 3.07557 -0.216309)
(0.394898 0.650153 -0.0876877)
(0.392094 0.00344859 -0.046211)
(0.6993 -0.192619 -0.0128788)
(1.0102 -0.240824 -0.00167349)
(1.22302 -0.248315 -0.00296289)
(1.31403 -0.241746 -0.015156)
(1.23072 -0.171537 -0.0404516)
(0.74442 0.401776 -0.0729869)
(0.723843 3.02708 -0.163181)
(0.0459325 -1.25163 -0.0941399)
(0.28951 -1.30585 -0.0984839)
(0.4825 -1.02625 -0.0881969)
(0.661515 -0.762548 -0.0716003)
(0.777037 -0.514005 -0.0523537)
(0.772037 -0.230441 -0.0337045)
(0.605144 0.198913 -0.0163507)
(0.130138 1.04884 -0.00580288)
(-0.0189841 3.19551 -0.0562664)
(0.0743327 -0.991681 -0.0539365)
(0.123364 -1.15228 -0.0557931)
(0.221421 -1.00124 -0.0620386)
(0.346502 -0.76603 -0.0608071)
(0.424051 -0.469133 -0.0485559)
(0.40476 -0.0797928 -0.0302515)
(0.28326 0.500148 -0.00857091)
(-0.0612859 1.51538 0.00936966)
(-0.166272 3.28113 -0.00898044)
(0.0550053 -1.1447 -0.03022)
(0.119879 -1.21827 -0.0329118)
(0.163926 -1.04942 -0.0331826)
(0.211387 -0.796554 -0.0316538)
(0.230429 -0.445098 -0.0263114)
(0.19173 0.01678 -0.0174359)
(0.0995675 0.666076 -0.00380775)
(-0.133565 1.6997 0.0103434)
(-0.165571 3.10975 0.000954972)
(0.0350943 -1.17924 -0.0147973)
(0.0740472 -1.21447 -0.0181716)
(0.0958293 -1.05679 -0.0177941)
(0.117557 -0.799262 -0.0129004)
(0.110839 -0.418098 -0.00656671)
(0.0610775 0.0907458 -0.00254474)
(-0.019476 0.775727 0.00278603)
(-0.184993 1.7855 0.0115912)
(-0.152405 2.85577 0.00381924)
(0.0154888 -1.21961 -0.00438048)
(0.0361342 -1.21768 -0.00876949)
(0.0432959 -1.06417 -0.00909192)
(0.0472235 -0.796313 -0.00416798)
(0.0293459 -0.392504 0.00358292)
(-0.0212362 0.14893 0.00806938)
(-0.0935903 0.85846 0.00920974)
(-0.213892 1.83284 0.0131476)
(-0.14403 2.62162 0.00569288)
(0.00159932 -1.23025 0.00206604)
(0.00863065 -1.21088 -0.00343447)
(0.00753891 -1.05942 -0.00470997)
(0.000848893 -0.781954 -0.00102297)
(-0.0234759 -0.36292 0.00631682)
(-0.0718829 0.198068 0.0128633)
(-0.139333 0.921925 0.0140081)
(-0.225265 1.85589 0.0146202)
(-0.135075 2.43633 0.0064652)
(-0.00453727 -1.22922 0.00535317)
(-0.00394432 -1.20503 -0.000914758)
(-0.0087895 -1.05076 -0.00290581)
(-0.0207997 -0.76402 -0.000322892)
(-0.0484323 -0.33059 0.00538423)
(-0.0934138 0.244518 0.0117954)
(-0.150046 0.964469 0.0142557)
(-0.201189 1.81115 0.0134346)
(-0.112541 2.16978 0.0052789)
(0.401933 -3.92902 0.413279)
(0.873428 -2.91267 0.376659)
(1.37322 -1.66623 0.340099)
(1.73789 -0.956773 0.265396)
(1.98078 -0.570956 0.168406)
(2.20544 -0.323691 0.040132)
(2.44478 -0.0351239 -0.163732)
(2.32996 0.914686 -0.375584)
(3.73282 2.94729 -0.414663)
(0.362716 0.759929 -0.213072)
(0.317371 0.00847791 -0.0965647)
(0.636727 -0.191413 -0.0338422)
(0.967579 -0.240431 -0.0130752)
(1.20226 -0.247313 -0.0114558)
(1.31343 -0.241469 -0.029133)
(1.25813 -0.179808 -0.0729571)
(0.788975 0.351817 -0.123722)
(0.79455 2.97765 -0.248862)
(0.0578924 -1.19992 -0.15129)
(0.261887 -1.30625 -0.172195)
(0.433913 -1.04823 -0.168648)
(0.624873 -0.781687 -0.141487)
(0.764227 -0.532782 -0.103436)
(0.785043 -0.257714 -0.0647671)
(0.64874 0.147715 -0.0259478)
(0.20405 0.939024 0.0119815)
(0.0581744 3.11934 -0.0332788)
(0.0814732 -0.94629 -0.101288)
(0.131406 -1.1542 -0.101934)
(0.213031 -1.03041 -0.105145)
(0.335172 -0.801216 -0.103295)
(0.424762 -0.505153 -0.0843181)
(0.424233 -0.12684 -0.0540455)
(0.326497 0.420509 -0.0140545)
(0.00845649 1.35919 0.0309675)
(-0.0947191 3.16893 0.0405578)
(0.0571181 -1.11146 -0.0538975)
(0.123862 -1.2304 -0.0590342)
(0.169896 -1.0876 -0.0548331)
(0.219159 -0.849843 -0.047381)
(0.244391 -0.501744 -0.038002)
(0.216877 -0.0475914 -0.0271068)
(0.141251 0.572441 -0.00618487)
(-0.0773577 1.53669 0.0263249)
(-0.107705 2.99528 0.0460312)
(0.0374993 -1.15737 -0.0292493)
(0.0784056 -1.23223 -0.0341513)
(0.101797 -1.10036 -0.0300827)
(0.126544 -0.859149 -0.0179938)
(0.127093 -0.485648 -0.00428812)
(0.0865706 0.0154721 0.000694228)
(0.019229 0.676259 0.00626141)
(-0.140083 1.63222 0.0261942)
(-0.106996 2.75637 0.0443131)
(0.0167619 -1.20367 -0.0105573)
(0.03968 -1.23822 -0.0173519)
(0.0484983 -1.11023 -0.0154975)
(0.055518 -0.859489 -0.00464639)
(0.0433904 -0.464952 0.0109676)
(0.000803088 0.0685162 0.0185798)
(-0.0607093 0.757768 0.0180685)
(-0.177921 1.69227 0.0285278)
(-0.10835 2.53574 0.0432599)
(0.00218655 -1.21875 0.00100674)
(0.0111988 -1.23319 -0.00785198)
(0.0115005 -1.1067 -0.00821623)
(0.00767028 -0.845962 -0.000102382)
(-0.011959 -0.436024 0.0140719)
(-0.054203 0.117035 0.0262849)
(-0.113696 0.8236 0.0271753)
(-0.197416 1.72776 0.0318754)
(-0.107496 2.35914 0.0416705)
(-0.00451324 -1.22066 0.00679114)
(-0.0020752 -1.22853 -0.00343604)
(-0.00572746 -1.099 -0.00524108)
(-0.0152749 -0.828596 0.000802332)
(-0.0391869 -0.403172 0.0117102)
(-0.0807023 0.166776 0.0238749)
(-0.132714 0.873279 0.0284338)
(-0.181455 1.69888 0.0314837)
(-0.0931437 2.10384 0.0353132)
(0.285512 -3.58483 0.52883)
(0.823953 -2.83016 0.526877)
(1.33177 -1.63314 0.468371)
(1.72019 -0.94516 0.363071)
(1.98525 -0.553888 0.227577)
(2.20306 -0.297921 0.0484218)
(2.44677 -0.0325334 -0.254952)
(2.2326 0.712724 -0.56837)
(3.79473 2.52188 -0.493317)
(0.171366 1.08935 -0.408826)
(0.13077 0.0987451 -0.212481)
(0.501889 -0.0873326 -0.106432)
(0.881333 -0.159303 -0.0597223)
(1.15963 -0.187212 -0.0397577)
(1.30456 -0.204861 -0.0485744)
(1.28986 -0.182792 -0.0960041)
(0.835278 0.217027 -0.127348)
(0.836341 2.6658 -0.170946)
(0.090584 -0.927355 -0.116351)
(0.220231 -1.22473 -0.189617)
(0.360433 -1.05893 -0.225093)
(0.558972 -0.807808 -0.21595)
(0.728368 -0.560662 -0.165652)
(0.780668 -0.298343 -0.10336)
(0.681624 0.0668485 -0.0354249)
(0.277962 0.754057 0.0584479)
(0.107625 2.77769 0.119578)
(0.100937 -0.78754 -0.116436)
(0.153501 -1.14313 -0.12148)
(0.222736 -1.10501 -0.118556)
(0.327278 -0.897036 -0.122227)
(0.418914 -0.590512 -0.10771)
(0.432577 -0.209444 -0.0753927)
(0.354862 0.307071 -0.0238441)
(0.0633471 1.14576 0.0586041)
(-0.0525451 2.81418 0.173125)
(0.0672435 -0.981827 -0.0592156)
(0.136473 -1.2358 -0.0796902)
(0.181486 -1.16651 -0.0735775)
(0.228513 -0.958778 -0.0610114)
(0.256292 -0.611746 -0.045134)
(0.23607 -0.152965 -0.0365189)
(0.17013 0.452368 -0.018032)
(-0.0422771 1.35083 0.0302863)
(-0.0809006 2.68247 0.138383)
(0.0461984 -1.06106 -0.0350849)
(0.0890373 -1.25394 -0.0496419)
(0.11158 -1.18342 -0.0455904)
(0.134754 -0.969232 -0.0291993)
(0.139668 -0.596261 -0.00620562)
(0.10684 -0.0940711 -0.000991325)
(0.0462238 0.561769 -0.00345968)
(-0.115345 1.47815 0.0158316)
(-0.0903988 2.49669 0.10539)
(0.0237647 -1.12033 -0.0117964)
(0.048015 -1.26096 -0.0270455)
(0.0556512 -1.19111 -0.0255463)
(0.0628531 -0.966623 -0.011674)
(0.0541461 -0.573816 0.011151)
(0.0182411 -0.0377749 0.0198711)
(-0.03927 0.653515 0.00964933)
(-0.160164 1.56104 0.0110661)
(-0.0973149 2.31277 0.0824266)
(0.00849424 -1.14395 0.00288005)
(0.0182038 -1.25552 -0.0130351)
(0.0170286 -1.18548 -0.0140459)
(0.013498 -0.950386 -0.00418176)
(-0.0028354 -0.539465 0.0138637)
(-0.0411954 0.0207477 0.0293427)
(-0.0998425 0.732397 0.0208451)
(-0.186613 1.61346 0.0127142)
(-0.100666 2.15757 0.0673216)
(0.0012978 -1.15182 0.0100505)
(0.00416107 -1.25045 -0.00652312)
(-0.00118196 -1.17762 -0.00912726)
(-0.0103195 -0.932697 -0.00200975)
(-0.0319615 -0.50304 0.0102733)
(-0.0746893 0.0857024 0.025881)
(-0.128385 0.801094 0.0251373)
(-0.177958 1.60045 0.0183245)
(-0.0899062 1.91917 0.0503518)
(0.0508023 -2.01448 0.447802)
(1.04333 -2.14052 0.601519)
(1.41934 -1.30413 0.556165)
(1.91771 -0.767468 0.44902)
(2.19368 -0.428551 0.308764)
(2.36188 -0.241556 0.145069)
(2.49065 -0.130547 -0.134713)
(1.69598 -0.0186689 -0.44928)
(3.22266 1.24232 -0.337685)
(-0.086536 1.05446 -0.372115)
(-0.309356 0.311185 -0.0994597)
(0.239532 0.494966 -0.164786)
(0.587968 0.308335 -0.128178)
(0.94756 0.175681 -0.0990534)
(1.15273 0.0210277 -0.0759157)
(1.17367 -0.151176 -0.0765288)
(0.665157 -0.196517 -0.0557426)
(0.34758 1.74928 -0.0447216)
(0.108599 -0.194432 -0.0343745)
(0.093527 -0.677478 -0.0204233)
(0.245056 -0.801967 -0.109365)
(0.388326 -0.716555 -0.141392)
(0.557321 -0.562587 -0.142727)
(0.634437 -0.347415 -0.110563)
(0.582591 -0.0501167 -0.0433053)
(0.207149 0.497463 0.0814851)
(-0.232925 2.06144 0.192701)
(0.096577 -0.310823 -0.0887038)
(0.150721 -0.843661 -0.0836023)
(0.225494 -0.96904 -0.0845011)
(0.301917 -0.905888 -0.0790855)
(0.373707 -0.689417 -0.0806738)
(0.375411 -0.336382 -0.0796384)
(0.301272 0.170766 -0.0416641)
(-0.0105152 1.03458 0.0850029)
(-0.309677 2.15466 0.237463)
(0.070586 -0.53939 -0.03822)
(0.132953 -0.999859 -0.0480349)
(0.179843 -1.11176 -0.0512905)
(0.222467 -1.0406 -0.0370638)
(0.251914 -0.772818 -0.0253959)
(0.229676 -0.333717 -0.03226)
(0.141027 0.312511 -0.0292921)
(-0.130792 1.34665 0.0698384)
(-0.287379 2.10279 0.209436)
(0.0563633 -0.673982 -0.0231616)
(0.0986838 -1.09554 -0.0348612)
(0.119117 -1.19258 -0.0339556)
(0.135657 -1.10159 -0.0206012)
(0.140151 -0.776823 -0.000247785)
(0.108323 -0.271475 0.000532349)
(0.0111568 0.466929 -0.00966879)
(-0.207316 1.53082 0.0624985)
(-0.253019 1.99174 0.17632)
(0.0375989 -0.767861 -0.00641102)
(0.0616093 -1.15374 -0.0190324)
(0.0645977 -1.23773 -0.0202675)
(0.0642508 -1.12803 -0.0102567)
(0.0553023 -0.747577 0.00943937)
(0.0144919 -0.182726 0.0170863)
(-0.0872656 0.623016 0.00615705)
(-0.250329 1.63571 0.0586708)
(-0.22063 1.85589 0.147049)
(0.0229612 -0.810633 0.00425942)
(0.0340219 -1.17513 -0.00995461)
(0.0253717 -1.25176 -0.013448)
(0.0144754 -1.12524 -0.00518912)
(-0.00131497 -0.696883 0.0106011)
(-0.0534231 -0.0725595 0.0252459)
(-0.157901 0.756845 0.0204675)
(-0.27224 1.69283 0.0592408)
(-0.19144 1.72823 0.125946)
(0.01614 -0.825133 0.00916893)
(0.0211991 -1.18017 -0.00560952)
(0.00724969 -1.2514 -0.01031)
(-0.00884845 -1.11423 -0.00403443)
(-0.0296891 -0.650073 0.00917244)
(-0.101923 0.0727307 0.026723)
(-0.193589 0.906748 0.0317279)
(-0.251406 1.69096 0.0604192)
(-0.146271 1.53105 0.099756)
)
;

boundaryField
{
    inlet
    {
        type            fixedValue;
        value           uniform (10 0 0);
    }
    outlet
    {
        type            zeroGradient;
    }
    lowerWall
    {
        type            noSlip;
    }
    upperWall
    {
        type            noSlip;
    }
}


// ************************************************************************* //
