/*--------------------------------*- C++ -*----------------------------------*\
| =========                 |                                                 |
| \\      /  F ield         | OpenFOAM: The Open Source CFD Toolbox           |
|  \\    /   O peration     | Version:  2306                                  |
|   \\  /    A nd           | Website:  www.openfoam.com                      |
|    \\/     M anipulation  |                                                 |
\*---------------------------------------------------------------------------*/
FoamFile
{
    version     2.0;
    format      ascii;
    arch        "LSB;label=32;scalar=64";
    class       volScalarField;
    location    "4.7";
    object      p;
}
// * * * * * * * * * * * * * * * * * * * * * * * * * * * * * * * * * * * * * //

dimensions      [0 2 -2 0 0 0 0];

internalField   nonuniform List<scalar> 
288632
(
68.9482
68.9399
68.9528
68.9784
69.0135
69.0549
69.1098
69.1535
69.2204
69.2513
69.3235
69.3434
69.3729
-2.66341
-2.52412
-2.50267
-2.20556
-2.07338
-1.78755
-1.54568
-1.27677
-0.998294
-0.715215
-0.429901
-0.143509
68.9414
68.9385
68.9523
68.9781
69.0133
69.0549
69.11
69.1539
69.2209
69.2524
69.324
69.3436
69.3738
-2.66408
-2.5249
-2.50402
-2.20663
-2.07446
-1.78857
-1.54654
-1.2775
-0.998875
-0.715637
-0.430157
-0.143596
68.9395
68.9374
68.9514
68.9773
69.0128
69.0546
69.1098
69.1544
69.2217
69.2543
69.3259
69.3455
69.3764
-2.66631
-2.52761
-2.50677
-2.20905
-2.0768
-1.79062
-1.54834
-1.27901
-1.00007
-0.716505
-0.430683
-0.143773
68.9359
68.9354
68.9501
68.9761
69.0118
69.054
69.1095
69.1548
69.2227
69.2569
69.3282
69.3489
69.38
-2.67001
-2.53145
-2.51085
-2.21264
-2.08029
-1.79366
-1.55103
-1.28127
-1.00187
-0.717807
-0.431472
-0.144039
68.9333
68.9334
68.9484
68.9747
69.0107
69.0532
69.109
69.1554
69.2239
69.2602
69.3315
69.3533
69.3848
-2.67511
-2.53667
-2.51622
-2.21739
-2.08491
-1.79766
-1.55457
-1.28425
-1.00423
-0.719522
-0.432513
-0.144389
68.9307
68.9311
68.9465
68.973
69.0092
69.0522
69.1084
69.156
69.2255
69.2641
69.3356
69.3588
69.3907
-2.68147
-2.54303
-2.52275
-2.22319
-2.09055
-1.80255
-1.55892
-1.28791
-1.00713
-0.721628
-0.433791
-0.14482
68.9281
68.9287
68.9443
68.971
69.0075
69.051
69.1077
69.1567
69.2273
69.2687
69.3406
69.3654
69.3979
-2.68897
-2.55049
-2.53036
-2.22998
-2.09715
-1.80826
-1.564
-1.29218
-1.01053
-0.724096
-0.435289
-0.145325
68.9255
68.9263
68.942
68.9688
69.0056
69.0497
69.1069
69.1574
69.2294
69.2739
69.3466
69.3733
69.4064
-2.69749
-2.55886
-2.53889
-2.23763
-2.10458
-1.81471
-1.56975
-1.29702
-1.01438
-0.726891
-0.436987
-0.145897
68.9229
68.9238
68.9395
68.9665
69.0036
69.0483
69.1061
69.1583
69.2318
69.2797
69.3536
69.3825
69.4163
-2.70686
-2.56803
-2.54822
-2.24601
-2.11273
-1.82179
-1.57606
-1.30235
-1.01862
-0.729972
-0.438859
-0.146528
68.9203
68.9212
68.937
68.9641
69.0014
69.0467
69.1052
69.1593
69.2346
69.2862
69.3617
69.3929
69.4277
-2.71691
-2.57783
-2.55818
-2.25499
-2.12147
-1.8294
-1.58286
-1.30808
-1.02319
-0.733294
-0.440879
-0.147209
68.9177
68.9186
68.9344
68.9616
68.9991
69.0451
69.1043
69.1603
69.2377
69.2934
69.371
69.4048
69.4408
-2.72746
-2.58809
-2.56861
-2.26442
-2.13066
-1.83741
-1.59003
-1.31413
-1.02801
-0.736808
-0.443016
-0.147931
68.9152
68.9161
68.9318
68.9591
68.9968
69.0434
69.1034
69.1615
69.2411
69.3012
69.3815
69.4182
69.4555
-2.73834
-2.59864
-2.57933
-2.27414
-2.14014
-1.8457
-1.59745
-1.32041
-1.03303
-0.740459
-0.445238
-0.148681
68.9127
68.9136
68.9292
68.9565
68.9945
69.0417
69.1026
69.1629
69.245
69.3098
69.3932
69.4331
69.4721
-2.74935
-2.60929
-2.59017
-2.284
-2.14978
-1.85414
-1.60502
-1.32682
-1.03815
-0.744192
-0.447511
-0.149449
68.9104
68.9112
68.9268
68.9541
68.9923
69.04
69.1019
69.1644
69.2491
69.3189
69.4062
69.4494
69.4904
-2.76032
-2.61988
-2.60095
-2.29384
-2.1594
-1.86258
-1.61261
-1.33325
-1.04329
-0.747946
-0.449798
-0.150222
68.9083
68.9089
68.9244
68.9517
68.9901
69.0384
69.1013
69.1661
69.2536
69.3286
69.4202
69.4672
69.5104
-2.77107
-2.63024
-2.61149
-2.30349
-2.16887
-1.8709
-1.6201
-1.33961
-1.04838
-0.751662
-0.452063
-0.150989
68.9063
68.9069
68.9222
68.9495
68.988
69.0369
69.1007
69.168
69.2584
69.3387
69.4352
69.4861
69.5319
-2.78143
-2.6402
-2.62164
-2.31281
-2.17802
-1.87896
-1.62737
-1.34579
-1.05333
-0.755279
-0.454269
-0.151735
68.9046
68.905
68.9202
68.9474
68.9861
69.0355
69.1004
69.1699
69.2633
69.349
69.4509
69.5058
69.5546
-2.79126
-2.64962
-2.63123
-2.32165
-2.18671
-1.88663
-1.63429
-1.35168
-1.05806
-0.758737
-0.45638
-0.15245
68.9032
68.9035
68.9184
68.9456
68.9843
69.0343
69.1001
69.1719
69.2682
69.3593
69.4669
69.526
69.578
-2.80039
-2.65836
-2.64013
-2.32988
-2.19481
-1.89379
-1.64077
-1.3572
-1.06249
-0.761979
-0.458359
-0.15312
68.9021
68.9022
68.9169
68.9439
68.9827
69.0332
69.1
69.174
69.2731
69.3693
69.4827
69.546
69.6015
-2.80872
-2.6663
-2.6482
-2.33737
-2.20218
-1.90032
-1.64668
-1.36224
-1.06655
-0.764948
-0.460172
-0.153735
68.9015
68.9012
68.9156
68.9425
68.9814
69.0322
69.0999
69.1759
69.2777
69.3787
69.4977
69.5652
69.6242
-2.81612
-2.67331
-2.65532
-2.344
-2.20872
-1.90613
-1.65195
-1.36673
-1.07016
-0.767596
-0.46179
-0.154283
68.9014
68.9005
68.9146
68.9414
68.9803
69.0315
69.0999
69.1778
69.2819
69.3872
69.5114
69.583
69.6453
-2.8225
-2.67934
-2.6614
-2.3497
-2.21434
-1.91111
-1.65647
-1.3706
-1.07327
-0.769876
-0.463184
-0.154756
68.9012
68.9001
68.9139
68.9405
68.9794
69.0309
69.1
69.1793
69.2855
69.3944
69.5231
69.5985
69.664
-2.82778
-2.68426
-2.66635
-2.35436
-2.21893
-1.91518
-1.66018
-1.37377
-1.07583
-0.771749
-0.464329
-0.155144
68.9036
68.9004
68.9134
68.9399
68.9788
69.0305
69.1
69.1806
69.2883
69.4001
69.5324
69.611
69.6792
-2.83191
-2.68813
-2.67012
-2.35794
-2.22245
-1.9183
-1.66302
-1.3762
-1.07778
-0.773184
-0.465207
-0.155441
68.9044
68.9002
68.913
68.9394
68.9783
69.0301
69.1
69.1814
69.2903
69.404
69.5385
69.6202
69.6903
-2.83481
-2.6906
-2.67265
-2.36035
-2.22483
-1.92038
-1.66495
-1.37784
-1.07911
-0.774154
-0.4658
-0.155642
68.9104
68.9011
68.913
68.9393
68.9782
69.0301
69.1002
69.1819
69.2914
69.4061
69.542
69.6245
69.6968
-2.83641
-2.69235
-2.67393
-2.36164
-2.22609
-1.92141
-1.66595
-1.37867
-1.07978
-0.774647
-0.4661
-0.155743
68.9395
68.9364
68.9501
68.9758
69.0109
69.0523
69.1072
69.1509
69.2176
69.2489
69.3203
69.3407
69.3714
-2.67139
-2.53309
-2.51128
-2.2123
-2.07865
-1.79169
-1.54836
-1.27844
-0.999239
-0.715672
-0.430076
-0.143535
68.9328
68.9348
68.9496
68.9756
69.0108
69.0523
69.1073
69.1513
69.2181
69.2506
69.3192
69.3412
69.3727
-2.67202
-2.53389
-2.51266
-2.2134
-2.07976
-1.79274
-1.54924
-1.27919
-0.999831
-0.716101
-0.430336
-0.143624
68.9308
68.9338
68.9489
68.9747
69.0102
69.0519
69.1071
69.1517
69.2188
69.2526
69.3208
69.3431
69.3754
-2.67428
-2.53665
-2.51547
-2.21586
-2.08214
-1.79483
-1.55106
-1.28072
-1.00105
-0.716985
-0.430871
-0.143804
68.9274
68.9317
68.9475
68.9735
69.0092
69.0513
69.1067
69.1521
69.2197
69.2552
69.3229
69.3463
69.3791
-2.67804
-2.54057
-2.51963
-2.21951
-2.0857
-1.79792
-1.5538
-1.28302
-1.00287
-0.718307
-0.431673
-0.144074
68.9249
68.9296
68.9458
68.9721
69.008
69.0505
69.1062
69.1526
69.2209
69.2584
69.3259
69.3506
69.3838
-2.68321
-2.54588
-2.52511
-2.22435
-2.0904
-1.80199
-1.5574
-1.28605
-1.00528
-0.72005
-0.432731
-0.14443
68.9224
68.9273
68.9438
68.9703
69.0065
69.0495
69.1055
69.1531
69.2223
69.2621
69.3299
69.3561
69.3897
-2.68966
-2.55236
-2.53176
-2.23026
-2.09614
-1.80696
-1.56182
-1.28977
-1.00823
-0.722192
-0.43403
-0.144868
68.9197
68.9251
68.9416
68.9683
69.0048
69.0482
69.1047
69.1537
69.224
69.2665
69.3347
69.3627
69.3968
-2.69728
-2.55995
-2.53951
-2.23717
-2.10286
-1.81277
-1.56699
-1.29412
-1.01169
-0.724702
-0.435554
-0.145381
68.917
68.9227
68.9392
68.9661
69.0028
69.0468
69.1038
69.1543
69.226
69.2715
69.3405
69.3704
69.4053
-2.70591
-2.56847
-2.54821
-2.24495
-2.11042
-1.81934
-1.57284
-1.29904
-1.0156
-0.727545
-0.437281
-0.145963
68.9143
68.9202
68.9368
68.9637
69.0007
69.0452
69.1028
69.1549
69.2282
69.277
69.3472
69.3794
69.4151
-2.71541
-2.57781
-2.55772
-2.25349
-2.11872
-1.82655
-1.57927
-1.30446
-1.01991
-0.73068
-0.439186
-0.146606
68.9117
68.9176
68.9342
68.9612
68.9985
69.0436
69.1018
69.1557
69.2307
69.2831
69.355
69.3897
69.4263
-2.72559
-2.58777
-2.56786
-2.26263
-2.12762
-1.83429
-1.58619
-1.3103
-1.02456
-0.734063
-0.441243
-0.1473
68.9091
68.915
68.9316
68.9587
68.9961
69.0418
69.1007
69.1565
69.2335
69.2898
69.3639
69.4013
69.4392
-2.73628
-2.5982
-2.57848
-2.27223
-2.13698
-1.84245
-1.59349
-1.31646
-1.02948
-0.737641
-0.44342
-0.148035
68.9066
68.9124
68.929
68.9561
68.9937
69.04
69.0997
69.1574
69.2366
69.2972
69.3738
69.4144
69.4537
-2.74729
-2.60892
-2.5894
-2.28212
-2.14664
-1.8509
-1.60105
-1.32286
-1.03459
-0.741361
-0.445684
-0.1488
68.9041
68.9099
68.9264
68.9535
68.9913
69.0382
69.0987
69.1585
69.2401
69.3051
69.3849
69.4289
69.4699
-2.75844
-2.61975
-2.60043
-2.29215
-2.15646
-1.85949
-1.60876
-1.32939
-1.0398
-0.745165
-0.448001
-0.149583
68.9018
68.9075
68.9239
68.951
68.989
69.0364
69.0977
69.1597
69.2438
69.3136
69.3971
69.4448
69.488
-2.76954
-2.6305
-2.61139
-2.30216
-2.16626
-1.86809
-1.61649
-1.33595
-1.04505
-0.748993
-0.450333
-0.150371
68.8996
68.9052
68.9215
68.9486
68.9867
69.0346
69.0969
69.161
69.2479
69.3225
69.4103
69.4621
69.5077
-2.78041
-2.64101
-2.62212
-2.31198
-2.1759
-1.87657
-1.62413
-1.34243
-1.05024
-0.752783
-0.452644
-0.151153
68.8976
68.9031
68.9192
68.9463
68.9845
69.0329
69.0961
69.1624
69.2522
69.3318
69.4244
69.4805
69.5289
-2.79089
-2.65112
-2.63244
-2.32146
-2.18522
-1.88478
-1.63153
-1.34873
-1.05529
-0.756473
-0.454895
-0.151915
68.8959
68.9013
68.9172
68.9442
68.9825
69.0314
69.0955
69.164
69.2566
69.3413
69.4392
69.4998
69.5513
-2.80081
-2.66067
-2.64219
-2.33045
-2.19408
-1.8926
-1.63859
-1.35474
-1.06012
-0.760002
-0.457049
-0.152645
68.8945
68.8997
68.9154
68.9423
68.9806
69.03
69.095
69.1657
69.2611
69.3508
69.4542
69.5195
69.5744
-2.81004
-2.66952
-2.65123
-2.33882
-2.20232
-1.8999
-1.64519
-1.36037
-1.06464
-0.763311
-0.45907
-0.153329
68.8934
68.8984
68.9138
68.9406
68.979
69.0287
69.0947
69.1673
69.2655
69.36
69.469
69.5391
69.5975
-2.81845
-2.67757
-2.65942
-2.34643
-2.20984
-1.90655
-1.65123
-1.36552
-1.06878
-0.766342
-0.460922
-0.153957
68.8928
68.8974
68.9125
68.9391
68.9775
69.0276
69.0944
69.169
69.2697
69.3686
69.4832
69.5579
69.62
-2.82591
-2.68467
-2.66665
-2.35317
-2.2165
-1.91247
-1.65659
-1.3701
-1.07247
-0.769046
-0.462575
-0.154518
68.8926
68.8967
68.9115
68.9379
68.9763
69.0268
69.0942
69.1705
69.2735
69.3764
69.496
69.5753
69.6409
-2.83234
-2.69077
-2.67282
-2.35896
-2.22221
-1.91754
-1.66121
-1.37405
-1.07564
-0.771375
-0.463999
-0.155001
68.8925
68.8963
68.9107
68.937
68.9754
69.0261
69.0941
69.1718
69.2768
69.383
69.507
69.5905
69.6593
-2.83767
-2.69575
-2.67784
-2.36369
-2.22688
-1.9217
-1.66499
-1.37728
-1.07825
-0.773288
-0.465169
-0.155398
68.8948
68.8966
68.9103
68.9363
68.9747
69.0256
69.094
69.1728
69.2794
69.3882
69.5157
69.6028
69.6744
-2.84183
-2.69965
-2.68166
-2.36732
-2.23046
-1.92487
-1.66789
-1.37976
-1.08025
-0.774754
-0.466065
-0.155702
68.8956
68.8964
68.9098
68.9359
68.9742
69.0252
69.094
69.1735
69.2812
69.3918
69.5214
69.6114
69.6854
-2.84476
-2.70215
-2.68422
-2.36977
-2.23289
-1.92699
-1.66985
-1.38144
-1.0816
-0.775745
-0.466672
-0.155907
68.9016
68.8973
68.9098
68.9358
68.9741
69.0251
69.094
69.174
69.2822
69.394
69.5246
69.6142
69.6915
-2.84637
-2.7039
-2.68551
-2.37108
-2.23416
-1.92803
-1.67087
-1.38228
-1.08228
-0.776247
-0.466977
-0.156009
68.9335
68.9311
68.9449
68.9705
69.0055
69.0468
69.1014
69.1452
69.2117
69.2436
69.3145
69.3358
69.3675
-2.68969
-2.55185
-2.52824
-2.22561
-2.0889
-1.79949
-1.55334
-1.28144
-1.00083
-0.716356
-0.430261
-0.143517
68.9268
68.9295
68.9445
68.9702
69.0053
69.0467
69.1015
69.1456
69.2121
69.2454
69.3132
69.3362
69.3689
-2.69035
-2.5527
-2.52967
-2.22676
-2.09004
-1.80057
-1.55425
-1.28221
-1.00144
-0.716799
-0.430529
-0.143608
68.9249
68.9283
68.9436
68.9694
69.0047
69.0463
69.1012
69.1459
69.2128
69.2472
69.3149
69.338
69.3716
-2.69269
-2.55556
-2.53259
-2.22931
-2.09251
-1.80273
-1.55614
-1.28379
-1.0027
-0.71771
-0.431081
-0.143794
68.9215
68.9262
68.9422
68.9682
69.0037
69.0457
69.1008
69.1462
69.2136
69.2497
69.3169
69.3412
69.3753
-2.69659
-2.55963
-2.53692
-2.23309
-2.0962
-1.80593
-1.55896
-1.28617
-1.00458
-0.719074
-0.431908
-0.144073
68.9188
68.9242
68.9405
68.9667
69.0024
69.0447
69.1001
69.1465
69.2146
69.2527
69.3197
69.3453
69.3799
-2.70193
-2.56515
-2.5426
-2.2381
-2.10107
-1.81014
-1.56269
-1.2893
-1.00707
-0.720875
-0.433
-0.14444
68.916
68.922
68.9385
68.9649
69.0009
69.0436
69.0993
69.1468
69.2158
69.2562
69.3234
69.3505
69.3856
-2.7086
-2.57187
-2.54951
-2.24423
-2.10702
-1.81529
-1.56726
-1.29314
-1.01012
-0.723087
-0.434343
-0.144893
68.9133
68.9196
68.9363
68.9628
68.999
69.0422
69.0983
69.1471
69.2171
69.2602
69.3278
69.3567
69.3924
-2.71647
-2.57974
-2.55756
-2.25139
-2.11398
-1.82131
-1.57261
-1.29764
-1.01369
-0.725682
-0.435918
-0.145424
68.9107
68.9172
68.9339
68.9605
68.997
69.0406
69.0972
69.1474
69.2187
69.2647
69.333
69.364
69.4004
-2.72539
-2.58858
-2.56659
-2.25945
-2.12182
-1.8281
-1.57866
-1.30273
-1.01774
-0.728623
-0.437705
-0.146026
68.908
68.9146
68.9314
68.9581
68.9947
69.0389
69.096
69.1477
69.2205
69.2696
69.339
69.3724
69.4097
-2.73519
-2.59825
-2.57646
-2.26829
-2.13043
-1.83558
-1.58532
-1.30834
-1.02221
-0.731869
-0.439678
-0.146692
68.9053
68.912
68.9287
68.9555
68.9923
69.037
69.0946
69.1479
69.2225
69.275
69.346
69.3818
69.4202
-2.74568
-2.60857
-2.58698
-2.27776
-2.13966
-1.8436
-1.59249
-1.31439
-1.02702
-0.735373
-0.441809
-0.147411
68.9027
68.9093
68.9261
68.9529
68.9898
69.035
69.0932
69.1482
69.2247
69.2809
69.3538
69.3924
69.4322
-2.75669
-2.61936
-2.598
-2.28769
-2.14937
-1.85207
-1.60005
-1.32078
-1.03212
-0.739083
-0.444066
-0.148174
68.9001
68.9067
68.9234
68.9502
68.9873
69.0329
69.0918
69.1486
69.2271
69.2871
69.3625
69.4041
69.4456
-2.76802
-2.63044
-2.60931
-2.29794
-2.15939
-1.86082
-1.6079
-1.32742
-1.03742
-0.742943
-0.446416
-0.148968
68.8977
68.9041
68.9207
68.9475
68.9847
69.0308
69.0903
69.149
69.2297
69.2939
69.3721
69.4171
69.4605
-2.77948
-2.64162
-2.62074
-2.30833
-2.16957
-1.86974
-1.6159
-1.3342
-1.04284
-0.746893
-0.448822
-0.149781
68.8953
68.9017
68.9181
68.9448
68.9821
69.0287
69.0889
69.1494
69.2326
69.301
69.3827
69.4312
69.477
-2.79088
-2.65272
-2.63209
-2.31869
-2.17975
-1.87867
-1.62393
-1.34102
-1.04829
-0.750871
-0.451247
-0.150601
68.8931
68.8994
68.9157
68.9423
68.9796
69.0266
69.0876
69.15
69.2357
69.3084
69.3941
69.4465
69.495
-2.80204
-2.66357
-2.64319
-2.32885
-2.18975
-1.88747
-1.63185
-1.34775
-1.05368
-0.754812
-0.45365
-0.151415
68.8911
68.8972
68.9134
68.9399
68.9773
69.0246
69.0864
69.1506
69.2389
69.3161
69.4062
69.4627
69.5143
-2.81278
-2.67398
-2.65385
-2.33866
-2.19942
-1.89599
-1.63955
-1.3543
-1.05894
-0.758651
-0.455993
-0.152209
68.8893
68.8953
68.9113
68.9376
68.975
69.0227
69.0853
69.1514
69.2423
69.3239
69.4189
69.4796
69.5347
-2.82294
-2.68382
-2.66393
-2.34796
-2.20861
-1.90411
-1.64689
-1.36056
-1.06396
-0.762325
-0.458237
-0.152969
68.8879
68.8937
68.9094
68.9356
68.973
69.021
69.0843
69.1523
69.2458
69.3317
69.4318
69.4969
69.5558
-2.83238
-2.69292
-2.67326
-2.3566
-2.21716
-1.91169
-1.65375
-1.36642
-1.06867
-0.765771
-0.460342
-0.153683
68.8868
68.8923
68.9078
68.9338
68.9711
69.0195
69.0834
69.1532
69.2492
69.3393
69.4445
69.514
69.5768
-2.84096
-2.70119
-2.68171
-2.36447
-2.22495
-1.9186
-1.66002
-1.37178
-1.07298
-0.76893
-0.462274
-0.154338
68.8861
68.8913
68.9064
68.9322
68.9696
69.0181
69.0827
69.1541
69.2524
69.3464
69.4566
69.5305
69.5972
-2.84858
-2.70847
-2.68916
-2.37143
-2.23186
-1.92474
-1.6656
-1.37655
-1.07682
-0.771749
-0.463997
-0.154923
68.8859
68.8907
68.9053
68.931
68.9682
69.017
69.0822
69.1549
69.2554
69.3528
69.4676
69.5456
69.6162
-2.85514
-2.71473
-2.69552
-2.37741
-2.23779
-1.93001
-1.6704
-1.38066
-1.08013
-0.774177
-0.465483
-0.155427
68.8857
68.8902
68.9045
68.93
68.9672
69.0161
69.0817
69.1557
69.2579
69.3582
69.477
69.5588
69.6329
-2.86056
-2.71983
-2.70069
-2.38229
-2.24263
-1.93432
-1.67434
-1.38403
-1.08285
-0.776174
-0.466705
-0.155842
68.8881
68.8905
68.904
68.9292
68.9664
69.0154
69.0814
69.1563
69.2599
69.3625
69.4843
69.5694
69.6465
-2.86479
-2.72383
-2.70462
-2.38604
-2.24634
-1.93762
-1.67735
-1.38661
-1.08494
-0.777703
-0.467641
-0.15616
68.8888
68.8903
68.9036
68.9287
68.9658
69.0149
69.0812
69.1567
69.2612
69.3655
69.4889
69.5772
69.6563
-2.86777
-2.72639
-2.70726
-2.38855
-2.24885
-1.93982
-1.6794
-1.38836
-1.08635
-0.778737
-0.468274
-0.156374
68.8948
68.8912
68.9035
68.9286
68.9657
69.0148
69.0812
69.157
69.2621
69.3673
69.4914
69.5814
69.6616
-2.8694
-2.72818
-2.70858
-2.3899
-2.25017
-1.94091
-1.68045
-1.38924
-1.08706
-0.779261
-0.468594
-0.156482
68.924
68.9229
68.9372
68.9626
68.9974
69.0384
69.0926
69.1364
69.2027
69.2354
69.3054
69.3283
69.3607
-2.71884
-2.57982
-2.55361
-2.24547
-2.10412
-1.81097
-1.5606
-1.28571
-1.00302
-0.717221
-0.430429
-0.143447
68.9174
68.9213
68.9366
68.9622
68.9972
69.0383
69.0926
69.1368
69.2031
69.2372
69.3038
69.3286
69.3621
-2.71956
-2.58076
-2.55512
-2.24668
-2.10533
-1.8121
-1.56155
-1.28651
-1.00366
-0.717683
-0.430708
-0.143541
68.9155
68.9202
68.9358
68.9614
68.9965
69.0379
69.0923
69.137
69.2036
69.2389
69.3054
69.3303
69.3648
-2.72204
-2.58378
-2.5582
-2.24937
-2.10792
-1.81437
-1.56353
-1.28817
-1.00498
-0.718636
-0.431285
-0.143735
68.9119
68.9181
68.9344
68.9602
68.9955
69.0371
69.0918
69.1371
69.2042
69.2412
69.307
69.3332
69.3682
-2.72615
-2.58809
-2.56278
-2.25336
-2.1118
-1.81773
-1.5665
-1.29066
-1.00695
-0.720065
-0.432151
-0.144027
68.9092
68.9161
68.9326
68.9586
68.9941
69.036
69.0909
69.1372
69.2049
69.2439
69.3095
69.3371
69.3726
-2.73179
-2.59392
-2.56879
-2.25863
-2.11693
-1.82215
-1.57041
-1.29394
-1.00955
-0.721951
-0.433295
-0.144412
68.9065
68.9138
68.9306
68.9567
68.9924
69.0347
69.0899
69.1372
69.2057
69.247
69.3126
69.3419
69.3779
-2.73882
-2.60101
-2.5761
-2.26508
-2.1232
-1.82756
-1.5752
-1.29797
-1.01275
-0.72427
-0.434703
-0.144887
68.9038
68.9114
68.9283
68.9546
68.9904
69.0331
69.0886
69.1371
69.2067
69.2505
69.3164
69.3476
69.3842
-2.74709
-2.60931
-2.58461
-2.27262
-2.13053
-1.83389
-1.58083
-1.3027
-1.0165
-0.726993
-0.436357
-0.145444
68.9011
68.9088
68.9258
68.9522
68.9882
69.0313
69.0872
69.1369
69.2077
69.2542
69.3208
69.3541
69.3914
-2.75647
-2.61862
-2.59415
-2.28111
-2.1388
-1.84105
-1.58719
-1.30805
-1.02076
-0.730083
-0.438234
-0.146077
68.8984
68.9062
68.9232
68.9496
68.9858
69.0293
69.0856
69.1366
69.2088
69.2582
69.3258
69.3615
69.3997
-2.76676
-2.6288
-2.60456
-2.29041
-2.14787
-1.84892
-1.59419
-1.31396
-1.02545
-0.733496
-0.440309
-0.146778
68.8957
68.9035
68.9205
68.9469
68.9832
69.0271
69.0838
69.1362
69.21
69.2624
69.3313
69.3696
69.4089
-2.77776
-2.63966
-2.61568
-2.30038
-2.1576
-1.85738
-1.60174
-1.32033
-1.03053
-0.737186
-0.442553
-0.147536
68.893
68.9008
68.9177
68.9441
68.9804
69.0247
69.0819
69.1357
69.2112
69.2669
69.3374
69.3785
69.4191
-2.78929
-2.651
-2.62729
-2.31084
-2.16784
-1.8663
-1.60972
-1.32707
-1.0359
-0.741096
-0.444933
-0.14834
68.8904
68.8981
68.9149
68.9413
68.9776
69.0222
69.0799
69.1352
69.2125
69.2715
69.3441
69.3882
69.4304
-2.80114
-2.66263
-2.63922
-2.32163
-2.17842
-1.87554
-1.61799
-1.33407
-1.04149
-0.74517
-0.447413
-0.149179
68.8879
68.8955
68.9122
68.9384
68.9747
69.0197
69.0778
69.1346
69.2139
69.2762
69.3513
69.3987
69.4428
-2.81311
-2.67436
-2.65125
-2.33256
-2.18917
-1.88495
-1.62644
-1.34124
-1.04722
-0.749343
-0.449956
-0.150039
68.8855
68.8929
68.9095
68.9356
68.9719
69.0171
69.0757
69.1339
69.2154
69.2811
69.359
69.4099
69.4562
-2.825
-2.68598
-2.6632
-2.34345
-2.19991
-1.89437
-1.63492
-1.34844
-1.05298
-0.75355
-0.452521
-0.150907
68.8832
68.8906
68.9069
68.9328
68.9691
69.0146
69.0737
69.1333
69.217
69.2861
69.3673
69.4219
69.4708
-2.83661
-2.69731
-2.67487
-2.35414
-2.21047
-1.90367
-1.6433
-1.35557
-1.05869
-0.757722
-0.455067
-0.15177
68.8812
68.8884
68.9045
68.9303
68.9664
69.0121
69.0717
69.1327
69.2187
69.2913
69.3761
69.4345
69.4864
-2.84778
-2.70819
-2.68607
-2.36445
-2.22068
-1.91267
-1.65143
-1.3625
-1.06425
-0.76179
-0.457551
-0.152612
68.8794
68.8864
68.9023
68.9278
68.9639
69.0098
69.0698
69.1323
69.2205
69.2964
69.3852
69.4477
69.5028
-2.85832
-2.71844
-2.69664
-2.37422
-2.23038
-1.92125
-1.6592
-1.36913
-1.06958
-0.765686
-0.459931
-0.153419
68.8779
68.8847
68.9003
68.9256
68.9616
69.0076
69.0681
69.1319
69.2223
69.3016
69.3945
69.4611
69.5196
-2.86809
-2.72791
-2.70641
-2.38329
-2.2394
-1.92926
-1.66646
-1.37534
-1.07457
-0.769344
-0.462167
-0.154178
68.8767
68.8833
68.8986
68.9237
68.9595
69.0056
69.0666
69.1316
69.2241
69.3065
69.4036
69.4743
69.5363
-2.87696
-2.7365
-2.71526
-2.39154
-2.24762
-1.93656
-1.6731
-1.38103
-1.07915
-0.772699
-0.46422
-0.154875
68.876
68.8822
68.8972
68.922
68.9577
69.0038
69.0652
69.1314
69.2258
69.3112
69.4122
69.4869
69.5524
-2.88482
-2.74406
-2.72304
-2.39884
-2.25491
-1.94305
-1.67901
-1.38609
-1.08323
-0.775694
-0.466053
-0.155498
68.8758
68.8815
68.896
68.9206
68.9561
69.0023
69.0641
69.1313
69.2274
69.3153
69.4199
69.4983
69.5673
-2.89157
-2.75054
-2.72969
-2.40511
-2.26115
-1.94862
-1.68409
-1.39045
-1.08675
-0.778276
-0.467634
-0.156035
68.8756
68.8811
68.8952
68.9195
68.9549
69.0011
69.0631
69.1312
69.2287
69.3188
69.4264
69.5081
69.5801
-2.89714
-2.75582
-2.73508
-2.41021
-2.26626
-1.95318
-1.68826
-1.39403
-1.08964
-0.7804
-0.468935
-0.156477
68.8779
68.8813
68.8946
68.9187
68.954
69.0002
69.0624
69.1312
69.2298
69.3214
69.4312
69.5159
69.5904
-2.90148
-2.75994
-2.73918
-2.41413
-2.27017
-1.95666
-1.69146
-1.39677
-1.09185
-0.782026
-0.469932
-0.156816
68.8786
68.8811
68.8941
68.9181
68.9533
68.9996
69.0619
69.1311
69.2305
69.3233
69.434
69.5212
69.5976
-2.90453
-2.76258
-2.74192
-2.41677
-2.27282
-1.95899
-1.69362
-1.39863
-1.09335
-0.783127
-0.470606
-0.157045
68.8846
68.8821
68.894
68.918
68.9531
68.9994
69.0618
69.1311
69.231
69.3245
69.4355
69.523
69.6012
-2.90619
-2.7644
-2.7433
-2.41816
-2.27421
-1.96013
-1.69473
-1.39957
-1.09411
-0.783685
-0.470947
-0.15716
68.9132
68.9127
68.927
68.9521
68.9866
69.0272
69.0809
69.1247
69.1906
69.2242
69.2933
69.3178
69.3508
-2.75886
-2.61739
-2.58752
-2.27185
-2.12421
-1.82595
-1.56993
-1.29106
-1.00564
-0.718135
-0.430495
-0.143293
68.9066
68.9112
68.9265
68.9517
68.9863
69.0271
69.0809
69.125
69.1909
69.226
69.2915
69.3181
69.3523
-2.75966
-2.61844
-2.58914
-2.27316
-2.1255
-1.82716
-1.57095
-1.29191
-1.00632
-0.718624
-0.430789
-0.143392
68.9046
68.91
68.9255
68.9509
68.9856
69.0265
69.0804
69.125
69.1912
69.2275
69.293
69.3197
69.3548
-2.76234
-2.62168
-2.59245
-2.27603
-2.12827
-1.82957
-1.57305
-1.29367
-1.00771
-0.719633
-0.431399
-0.143598
68.901
68.9079
68.9241
68.9496
68.9845
69.0257
69.0797
69.1249
69.1916
69.2295
69.2942
69.3223
69.358
-2.76676
-2.62632
-2.59737
-2.28029
-2.13242
-1.83315
-1.5762
-1.29631
-1.00981
-0.721147
-0.432317
-0.143906
68.8983
68.9058
68.9223
68.948
68.983
69.0244
69.0787
69.1247
69.192
69.2318
69.2962
69.3257
69.362
-2.77281
-2.63258
-2.60383
-2.28593
-2.13789
-1.83786
-1.58036
-1.2998
-1.01257
-0.723147
-0.43353
-0.144315
68.8956
68.9034
68.9202
68.946
68.9811
69.0229
69.0773
69.1243
69.1923
69.2344
69.2986
69.3299
69.3667
-2.78034
-2.64018
-2.61168
-2.29281
-2.14459
-1.84363
-1.58546
-1.30408
-1.01596
-0.72561
-0.435025
-0.144819
68.8929
68.9009
68.9179
68.9437
68.979
69.0211
69.0757
69.1237
69.1927
69.237
69.3015
69.3348
69.3722
-2.78919
-2.64908
-2.62082
-2.30087
-2.15243
-1.85039
-1.59145
-1.30911
-1.01995
-0.728506
-0.436784
-0.145412
68.8901
68.8983
68.9153
68.9412
68.9765
69.0189
69.0738
69.1229
69.193
69.2397
69.3047
69.3401
69.3783
-2.79921
-2.65904
-2.63106
-2.30994
-2.16127
-1.85802
-1.59823
-1.31482
-1.02449
-0.731795
-0.438783
-0.146087
68.8874
68.8956
68.9126
68.9385
68.9739
69.0165
69.0717
69.1218
69.1931
69.2425
69.3082
69.346
69.385
-2.81018
-2.66992
-2.64223
-2.31988
-2.17099
-1.86643
-1.60571
-1.32112
-1.0295
-0.735436
-0.440996
-0.146834
68.8846
68.8928
68.9097
68.9356
68.971
69.0139
69.0693
69.1206
69.1932
69.2451
69.3117
69.3521
69.3921
-2.82191
-2.68151
-2.65415
-2.33053
-2.18141
-1.87548
-1.61378
-1.32793
-1.03491
-0.739376
-0.443393
-0.147644
68.8819
68.89
68.9068
68.9326
68.968
69.0111
69.0668
69.119
69.1932
69.2476
69.3153
69.3583
69.3996
-2.83418
-2.69361
-2.66659
-2.34171
-2.19238
-1.88503
-1.62231
-1.33514
-1.04066
-0.743559
-0.445939
-0.148505
68.8792
68.8873
68.9039
68.9295
68.9648
69.0081
69.064
69.1173
69.193
69.2498
69.3188
69.3647
69.4075
-2.84676
-2.70599
-2.67936
-2.35323
-2.20372
-1.89492
-1.63117
-1.34265
-1.04665
-0.747922
-0.448597
-0.149405
68.8766
68.8846
68.901
68.9265
68.9616
69.005
69.0611
69.1153
69.1926
69.2517
69.3224
69.371
69.4156
-2.85944
-2.71846
-2.69222
-2.3649
-2.21524
-1.90501
-1.64023
-1.35033
-1.05279
-0.752399
-0.451327
-0.150329
68.8742
68.8819
68.8982
68.9234
68.9584
69.0018
69.0581
69.1131
69.1922
69.2533
69.3259
69.3774
69.424
-2.87201
-2.73079
-2.70498
-2.37653
-2.22675
-1.91512
-1.64933
-1.35807
-1.05898
-0.756918
-0.454083
-0.151263
68.8719
68.8795
68.8955
68.9205
68.9552
68.9987
69.0551
69.1109
69.1917
69.2548
69.3294
69.3838
69.4327
-2.88427
-2.7428
-2.71742
-2.38793
-2.23807
-1.92509
-1.65832
-1.36573
-1.06512
-0.761406
-0.456823
-0.152192
68.8697
68.8772
68.893
68.9176
68.9522
68.9956
69.0521
69.1087
69.1912
69.2562
69.333
69.3903
69.4417
-2.89601
-2.7543
-2.72935
-2.39892
-2.24902
-1.93476
-1.66707
-1.37319
-1.07111
-0.765788
-0.4595
-0.1531
68.8679
68.8752
68.8906
68.915
68.9493
68.9926
69.0493
69.1065
69.1907
69.2575
69.3366
69.3969
69.451
-2.90707
-2.76511
-2.74059
-2.40932
-2.25941
-1.94396
-1.67542
-1.38033
-1.07685
-0.769989
-0.462068
-0.153972
68.8663
68.8734
68.8885
68.9126
68.9466
68.9898
69.0466
69.1045
69.1902
69.2587
69.3402
69.4035
69.4603
-2.91729
-2.77509
-2.75097
-2.41899
-2.26909
-1.95256
-1.68324
-1.38702
-1.08224
-0.773936
-0.464483
-0.154792
68.8651
68.8719
68.8867
68.9104
68.9442
68.9872
69.0441
69.1026
69.1898
69.2598
69.3437
69.4098
69.4694
-2.92655
-2.78411
-2.76035
-2.42777
-2.2779
-1.96041
-1.69038
-1.39316
-1.08718
-0.777561
-0.466703
-0.155547
68.8644
68.8708
68.8852
68.9086
68.942
68.9849
69.0419
69.1009
69.1894
69.2608
69.3468
69.4156
69.4778
-2.93473
-2.79204
-2.76859
-2.43552
-2.2857
-1.96737
-1.69675
-1.39862
-1.09159
-0.780799
-0.468686
-0.156221
68.8641
68.87
68.8839
68.907
68.9402
68.983
69.04
69.0994
69.189
69.2615
69.3494
69.4205
69.485
-2.94174
-2.79882
-2.77561
-2.44217
-2.29239
-1.97336
-1.70222
-1.40333
-1.09539
-0.783592
-0.470398
-0.156804
68.8639
68.8696
68.883
68.9058
68.9387
68.9814
69.0384
69.0982
69.1886
69.2621
69.3511
69.4244
69.4907
-2.94751
-2.80433
-2.7813
-2.44759
-2.29785
-1.97825
-1.70671
-1.4072
-1.09852
-0.78589
-0.471807
-0.157284
68.8662
68.8698
68.8824
68.9049
68.9376
68.9802
69.0372
69.0973
69.1883
69.2625
69.352
69.4269
69.4946
-2.952
-2.80861
-2.78562
-2.45174
-2.30204
-1.98198
-1.71015
-1.41016
-1.10091
-0.787651
-0.472888
-0.157651
68.8668
68.8696
68.8819
68.9042
68.9369
68.9793
69.0363
69.0966
69.188
69.2625
69.3519
69.428
69.4966
-2.95514
-2.81136
-2.78852
-2.45453
-2.30487
-1.98448
-1.71247
-1.41216
-1.10253
-0.788844
-0.473619
-0.1579
68.8728
68.8705
68.8818
68.9041
68.9366
68.979
69.0359
69.0963
69.1879
69.2629
69.3511
69.4218
69.4972
-2.95685
-2.81323
-2.78997
-2.456
-2.30636
-1.98571
-1.71367
-1.41318
-1.10335
-0.789448
-0.47399
-0.158026
68.9005
68.9003
68.9144
68.9392
68.9732
69.0133
69.0662
69.11
69.1754
69.2101
69.2781
69.3044
69.338
-2.81003
-2.66469
-2.63009
-2.30469
-2.14903
-1.84421
-1.58108
-1.29723
-1.00847
-0.718924
-0.430347
-0.143018
68.8939
68.8988
68.9139
68.9388
68.9729
69.0131
69.0661
69.1102
69.1756
69.2117
69.2762
69.3047
69.3394
-2.81094
-2.66588
-2.63185
-2.30611
-2.15043
-1.84551
-1.58217
-1.29814
-1.00919
-0.719445
-0.43066
-0.143123
68.8919
68.8975
68.913
68.9379
68.9721
69.0125
69.0656
69.11
69.1757
69.213
69.2774
69.306
69.3418
-2.81389
-2.66942
-2.63547
-2.30922
-2.15342
-1.84811
-1.58443
-1.30003
-1.01068
-0.720524
-0.431312
-0.143342
68.8883
68.8954
68.9115
68.9366
68.9708
69.0114
69.0646
69.1097
69.1758
69.2147
69.2783
69.3083
69.3447
-2.81872
-2.67449
-2.64083
-2.31383
-2.1579
-1.85196
-1.58781
-1.30286
-1.01292
-0.722145
-0.432294
-0.143672
68.8856
68.8932
68.9096
68.9348
68.9692
69.01
69.0633
69.109
69.1757
69.2165
69.2796
69.3112
69.3481
-2.82531
-2.68129
-2.64786
-2.31993
-2.16383
-1.85704
-1.59228
-1.3066
-1.01588
-0.724289
-0.433594
-0.14411
68.8828
68.8908
68.9074
68.9327
68.9672
69.0082
69.0617
69.1082
69.1755
69.2182
69.2812
69.3146
69.3521
-2.8335
-2.68956
-2.65642
-2.32738
-2.17108
-1.86327
-1.59778
-1.31121
-1.01953
-0.726933
-0.435199
-0.144651
68.88
68.8882
68.905
68.9303
68.9648
69.0061
69.0596
69.1069
69.1751
69.2199
69.2829
69.3183
69.3564
-2.84312
-2.69922
-2.66637
-2.33609
-2.17956
-1.87056
-1.60423
-1.31663
-1.02382
-0.730046
-0.43709
-0.145289
68.8773
68.8856
68.9023
68.9276
68.9621
69.0036
69.0572
69.1054
69.1745
69.2214
69.2846
69.3222
69.361
-2.85399
-2.71003
-2.67752
-2.34591
-2.18914
-1.87882
-1.61155
-1.32278
-1.02871
-0.733589
-0.439243
-0.146016
68.8745
68.8828
68.8995
68.9247
68.9592
69.0007
69.0545
69.1034
69.1735
69.2225
69.2859
69.3259
69.3655
-2.86588
-2.72182
-2.68968
-2.35667
-2.19967
-1.88792
-1.61963
-1.32959
-1.03411
-0.737517
-0.441631
-0.146823
68.8717
68.8799
68.8965
68.9216
68.956
68.9976
69.0514
69.101
69.1722
69.223
69.2868
69.3291
69.3696
-2.87856
-2.73436
-2.70263
-2.36819
-2.21099
-1.89772
-1.62836
-1.33695
-1.03997
-0.741776
-0.444223
-0.147699
68.8689
68.877
68.8935
68.9184
68.9526
68.9942
69.048
69.0981
69.1706
69.2228
69.2869
69.3315
69.3732
-2.89179
-2.74743
-2.71615
-2.38029
-2.2229
-1.90807
-1.63761
-1.34477
-1.0462
-0.746307
-0.446982
-0.148633
68.8661
68.8742
68.8904
68.9151
68.9491
68.9906
69.0443
69.0949
69.1684
69.2218
69.2861
69.3329
69.3757
-2.90533
-2.76078
-2.73
-2.39276
-2.23521
-1.91881
-1.64723
-1.35292
-1.0527
-0.751042
-0.449867
-0.14961
68.8635