/*--------------------------------*- C++ -*----------------------------------*\
| =========                 |                                                 |
| \\      /  F ield         | OpenFOAM: The Open Source CFD Toolbox           |
|  \\    /   O peration     | Version:  2306                                  |
|   \\  /    A nd           | Website:  www.openfoam.com                      |
|    \\/     M anipulation  |                                                 |
\*---------------------------------------------------------------------------*/
FoamFile
{
    version     2.0;
    format      ascii;
    arch        "LSB;label=32;scalar=64";
    class       volScalarField;
    location    "0.9";
    object      p;
}
// * * * * * * * * * * * * * * * * * * * * * * * * * * * * * * * * * * * * * //

dimensions      [0 2 -2 0 0 0 0];

internalField   nonuniform List<scalar> 
288632
(
37.1866
37.1792
37.1885
37.2088
37.2378
37.2747
37.3185
37.3644
37.4324
37.2492
37.7472
37.3417
37.5198
0.284869
0.447006
-0.0977685
0.17291
0.116565
0.101602
0.0887324
0.0743107
0.0587561
0.0423845
0.0250626
0.00813906
37.1808
37.1775
37.1875
37.2079
37.237
37.2739
37.3177
37.3637
37.4316
37.2491
37.7462
37.3404
37.52
0.28492
0.44816
-0.0985863
0.172576
0.116062
0.101123
0.088323
0.073974
0.0584937
0.0421973
0.0249494
0.00810022
37.177
37.175
37.1855
37.206
37.2351
37.2721
37.3159
37.3621
37.4298
37.2502
37.7448
37.3395
37.52
0.284262
0.445974
-0.100144
0.171223
0.114929
0.100154
0.0875011
0.0733004
0.0579699
0.0418238
0.0247253
0.0080253
37.1729
37.1717
37.1826
37.2032
37.2323
37.2693
37.3132
37.3596
37.4269
37.2516
37.7423
37.3389
37.52
0.283069
0.445149
-0.102047
0.169542
0.113314
0.0987203
0.0862802
0.0722992
0.0571917
0.0412691
0.0243931
0.00791469
37.1685
37.1678
37.1789
37.1995
37.2286
37.2655
37.3095
37.3563
37.4231
37.2534
37.739
37.3382
37.5199
0.281018
0.442193
-0.104712
0.167164
0.11117
0.0968359
0.0846754
0.0709837
0.0561695
0.0405406
0.0239572
0.00776976
37.1638
37.1633
37.1745
37.1951
37.2241
37.2609
37.305
37.3521
37.4183
37.2559
37.735
37.3374
37.5196
0.277795
0.439106
-0.107912
0.164224
0.108541
0.0945256
0.0827079
0.0693712
0.0549168
0.0396482
0.0234234
0.0075924
37.1587
37.1583
37.1695
37.19
37.2188
37.2555
37.2996
37.3471
37.4127
37.2586
37.7308
37.3367
37.5194
0.27391
0.435289
-0.111649
0.160757
0.105457
0.091819
0.0804037
0.0674835
0.0534508
0.038604
0.0227989
0.007385
37.1533
37.1528
37.164
37.1842
37.2128
37.2494
37.2935
37.3414
37.4065
37.2611
37.7271
37.3364
37.5195
0.269416
0.430892
-0.11587
0.156807
0.101959
0.0887522
0.0777941
0.0653463
0.0517915
0.0374224
0.0220923
0.00715042
37.1475
37.147
37.158
37.178
37.2063
37.2426
37.2867
37.335
37.3998
37.2645
37.7232
37.3366
37.5201
0.264381
0.425982
-0.120526
0.152433
0.0980945
0.0853672
0.0749151
0.0629893
0.0499623
0.0361201
0.0213137
0.00689196
37.1415
37.1409
37.1516
37.1713
37.1993
37.2354
37.2794
37.3281
37.3929
37.2687
37.7194
37.3375
37.5214
0.258883
0.420639
-0.125552
0.147698
0.093918
0.0817115
0.0718074
0.0604462
0.0479892
0.0347156
0.0204741
0.00661332
37.1354
37.1346
37.145
37.1643
37.1919
37.2277
37.2718
37.3209
37.386
37.2738
37.7158
37.3396
37.5238
0.253006
0.414944
-0.130882
0.142673
0.089489
0.0778376
0.068516
0.057754
0.045901
0.0332295
0.0195858
0.00631857
37.1292
37.1282
37.1383
37.1571
37.1843
37.2199
37.2639
37.3136
37.3793
37.28
37.7129
37.343
37.5278
0.246837
0.408987
-0.13644
0.137433
0.0848731
0.073803
0.0650899
0.0549527
0.0437288
0.0316841
0.0186622
0.00601209
37.123
37.1218
37.1315
37.1499
37.1766
37.2119
37.2559
37.3062
37.373
37.2872
37.711
37.3482
37.5337
0.240469
0.402862
-0.14214
0.132059
0.0801402
0.0696686
0.0615809
0.0520848
0.0415058
0.0301028
0.0177173
0.00569857
37.117
37.1156
37.1248
37.1427
37.1689
37.2039
37.2481
37.2992
37.3674
37.2957
37.7103
37.3554
37.5418
0.234008
0.396665
-0.147898
0.126635
0.0753639
0.0654987
0.0580436
0.049195
0.0392665
0.0285105
0.0167659
0.0053829
37.1111
37.1095
37.1183
37.1357
37.1614
37.1962
37.2405
37.2926
37.3627
37.3052
37.7111
37.3649
37.5525
0.227533
0.39049
-0.15362
0.121248
0.0706201
0.0613597
0.0545343
0.0463293
0.0370466
0.0269323
0.0158232
0.00507012
37.1056
37.1037
37.1121
37.1289
37.1542
37.1888
37.2334
37.2868
37.3589
37.3158
37.7136
37.3768
37.5659
0.221177
0.384437
-0.159212
0.115983
0.0659861
0.0573191
0.0511101
0.0435341
0.034882
0.0253939
0.0149043
0.00476532
37.1005
37.0984
37.1063
37.1226
37.1474
37.1818
37.2269
37.2816
37.3561
37.3273
37.7177
37.391
37.5819
0.215013
0.378605
-0.164578
0.110926
0.0615393
0.0534441
0.0478277
0.0408558
0.0328086
0.0239206
0.0140245
0.0044735
37.096
37.0935
37.101
37.1167
37.1411
37.1754
37.221
37.2773
37.3544
37.3395
37.7234
37.4072
37.6004
0.209176
0.373084
-0.169625
0.106162
0.0573553
0.0498006
0.044743
0.0383397
0.0308613
0.0225372
0.0131985
0.00419958
37.092
37.0893
37.0962
37.1115
37.1355
37.1697
37.2158
37.2739
37.3537
37.352
37.7302
37.4248
37.6207
0.20374
0.367962
-0.174261
0.101771
0.053507
0.046452
0.0419092
0.036029
0.0290735
0.0212673
0.0124404
0.00394823
37.0888
37.0857
37.0921
37.1069
37.1305
37.1647
37.2114
37.2712
37.3538
37.3643
37.7378
37.4433
37.6421
0.198797
0.363334
-0.178402
0.0978277
0.0500626
0.0434575
0.0393762
0.0339642
0.0274762
0.020133
0.0117634
0.00372381
37.0864
37.0828
37.0887
37.103
37.1263
37.1604
37.2077
37.2692
37.3545
37.376
37.7456
37.4616
37.6634
0.194437
0.358815
-0.181979
0.0944015
0.0470843
0.0408709
0.037189
0.0321819
0.0260978
0.0191544
0.0111793
0.0035303
37.085
37.0807
37.086
37.0999
37.1229
37.1571
37.2049
37.2678
37.3555
37.3864
37.7531
37.4788
37.6837
0.191317
0.356475
-0.184802
0.0915925
0.0446293
0.0387394
0.0353873
0.0307139
0.0249628
0.0183487
0.0106987
0.00337118
37.0847
37.0795
37.0841
37.0976
37.1204
37.1545
37.2028
37.2669
37.3566
37.395
37.7598
37.4934
37.7013
0.188991
0.351598
-0.187221
0.0891656
0.0427109
0.0371019
0.0340038
0.0295871
0.0240918
0.0177306
0.0103302
0.00324936
37.0853
37.0789
37.0829
37.0961
37.1187
37.1529
37.2015
37.2665
37.3576
37.4013
37.7644
37.5043
37.7151
0.186207
0.352355
-0.188486
0.0879633
0.041495
0.0359977
0.0330649
0.028822
0.0235007
0.0173113
0.0100806
0.00316713
37.09
37.0792
37.0824
37.0954
37.118
37.1522
37.201
37.2664
37.3583
37.405
37.7678
37.5097
37.7242
0.183979
0.348488
-0.189128
0.0868051
0.0407598
0.0354188
0.0325827
0.0284314
0.0231997
0.0170979
0.00995442
0.00312646
37.1801
37.1767
37.1867
37.207
37.236
37.2729
37.3166
37.3624
37.4302
37.2474
37.7446
37.3391
37.5188
0.284767
0.447559
-0.0976856
0.171869
0.116234
0.101402
0.0886281
0.0742927
0.0588014
0.0424638
0.0251399
0.00817654
37.1743
37.175
37.1857
37.2061
37.2351
37.272
37.3158
37.3617
37.4294
37.2484
37.7406
37.3378
37.5188
0.284863
0.448652
-0.0985147
0.171517
0.115716
0.100911
0.0882117
0.0739507
0.0585352
0.0422739
0.0250252
0.00813727
37.1705
37.1725
37.1837
37.2042
37.2333
37.2702
37.314
37.3601
37.4274
37.2497
37.7383
37.3368
37.5189
0.284199
0.446442
-0.100095
0.170148
0.11457
0.0999281
0.0873776
0.0732675
0.0580042
0.0418954
0.0247983
0.00806144
37.1664
37.1692
37.1808
37.2014
37.2304
37.2673
37.3111
37.3575
37.4244
37.2512
37.7353
37.336
37.519
0.28299
0.445553
-0.10204
0.168427
0.112925
0.0984719
0.0861383
0.072252
0.0572153
0.0413334
0.0244618
0.00794947
37.162
37.1652
37.177
37.1977
37.2267
37.2635
37.3074
37.3541
37.4205
37.2531
37.7316
37.3351
37.5188
0.280887
0.442566
-0.104745
0.166007
0.110746
0.0965575
0.0845092
0.0709174
0.0561789
0.0405952
0.0240203
0.00780272
37.1573
37.1607
37.1726
37.1932
37.2221
37.2588
37.3027
37.3497
37.4155
37.2554
37.7273
37.3341
37.5184
0.277625
0.439409
-0.108002
0.163015
0.108072
0.0942102
0.0825117
0.0692815
0.0549087
0.0396907
0.0234794
0.00762311
37.1522
37.1557
37.1676
37.188
37.2167
37.2533
37.2972
37.3445
37.4096
37.2576
37.7231
37.3332
37.5181
0.273684
0.435517
-0.111805
0.159485
0.104936
0.0914599
0.0801721
0.0673659
0.053422
0.0386323
0.0228467
0.00741305
37.1467
37.1502
37.162
37.1822
37.2107
37.247
37.2909
37.3385
37.403
37.2599
37.7188
37.3325
37.518
0.269122
0.431033
-0.116102
0.155465
0.101377
0.0883429
0.0775217
0.0651968
0.051739
0.0374344
0.0221306
0.00717542
37.1409
37.1443
37.1559
37.1759
37.204
37.2401
37.2839
37.3318
37.396
37.263
37.7142
37.3322
37.5182
0.264013
0.426025
-0.120842
0.151011
0.0974458
0.0849018
0.0745971
0.0628042
0.0498832
0.0361138
0.0213414
0.00691355
37.1349
37.1382
37.1495
37.1691
37.1969
37.2327
37.2764
37.3246
37.3886
37.2668
37.7096
37.3326
37.5191
0.258431
0.420576
-0.125962
0.146189
0.0931955
0.0811846
0.0714396
0.0602221
0.047881
0.0346892
0.0204901
0.00663117
37.1288
37.1319
37.1429
37.1621
37.1894
37.2249
37.2684
37.317
37.3812
37.2714
37.7052
37.334
37.5211
0.252464
0.414765
-0.131394
0.14107
0.0886872
0.0772446
0.0680946
0.0574879
0.0457614
0.0331816
0.0195893
0.00633238
37.1225
37.1254
37.1361
37.1548
37.1817
37.2168
37.2602
37.3092
37.3739
37.277
37.7014
37.3366
37.5245
0.246197
0.408686
-0.137058
0.135731
0.0839874
0.07314
0.0646117
0.0546422
0.0435562
0.0316133
0.0186524
0.00602162
37.1163
37.119
37.1293
37.1475
37.1738
37.2086
37.252
37.3014
37.3671
37.2835
37.6983
37.3409
37.5297
0.239731
0.402435
-0.142871
0.130255
0.0791674
0.0689329
0.0610437
0.0517281
0.0412987
0.0300084
0.0176938
0.00570362
37.1102
37.1127
37.1225
37.1402
37.166
37.2004
37.2438
37.2939
37.3608
37.2912
37.6964
37.3471
37.5371
0.233158
0.396106
-0.148743
0.124727
0.0743018
0.0646886
0.057446
0.0487911
0.0390242
0.0283918
0.0167283
0.00538338
37.1044
37.1066
37.1159
37.1331
37.1584
37.1924
37.2359
37.2869
37.3553
37.2999
37.6959
37.3556
37.5471
0.226585
0.389802
-0.15458
0.119235
0.0694681
0.0604746
0.0538758
0.0458777
0.0367688
0.0267892
0.0157713
0.005066
37.0988
37.1008
37.1097
37.1262
37.151
37.1848
37.2284
37.2805
37.3508
37.3095
37.697
37.3663
37.5596
0.220115
0.383622
-0.160287
0.113866
0.0647453
0.0563597
0.0503913
0.0430353
0.0345691
0.0252266
0.0148384
0.00475664
37.0937
37.0954
37.1038
37.1198
37.144
37.1776
37.2215
37.2749
37.3473
37.3201
37.6997
37.3793
37.5749
0.213869
0.377666
-0.165765
0.108709
0.060212
0.0524124
0.0470504
0.0403112
0.0324615
0.0237298
0.0139449
0.0044604
37.0891
37.0905
37.0984
37.1138
37.1376
37.1709
37.2153
37.2701
37.3449
37.3313
37.704
37.3943
37.5926
0.20793
0.372028
-0.170918
0.10385
0.0559458
0.0487003
0.04391
0.0377515
0.0304817
0.0223241
0.0131059
0.00418226
37.0852
37.0862
37.0936
37.1085
37.1318
37.165
37.2097
37.2661
37.3436
37.3429
37.7096
37.4109
37.6123
0.202408
0.3668
-0.175653
0.0993706
0.052021
0.0452878
0.0410245
0.0354004
0.0286637
0.0210334
0.0123357
0.003927
37.0819
37.0826
37.0894
37.1038
37.1267
37.1598
37.205
37.263
37.3431
37.3543
37.716
37.4284
37.633
0.197375
0.362075
-0.179883
0.0953478
0.0485075
0.0422356
0.0384446
0.033299
0.0270392
0.0198804
0.0116477
0.00369905
37.0795
37.0797
37.086
37.0998
37.1224
37.1554
37.2011
37.2606
37.3433
37.3653
37.7228
37.4461
37.6539
0.192951
0.357477
-0.183538
0.0918532
0.045469
0.0395987
0.0362167
0.0314847
0.0256371
0.0188854
0.0110541
0.00350246
37.0781
37.0776
37.0833
37.0967
37.1189
37.1519
37.198
37.2589
37.3439
37.3751
37.7295
37.4625
37.6737
0.189769
0.355077
-0.186432
0.0889811
0.0429632
0.0374254
0.0343811
0.0299903
0.0244824
0.0180663
0.0105656
0.00334077
37.0777
37.0763
37.0813
37.0943
37.1163
37.1492
37.1958
37.2578
37.3447
37.3832
37.7355
37.4764
37.6911
0.187427
0.350202
-0.188895
0.0865176
0.0410095
0.0357561
0.0329714
0.028843
0.0235963
0.0174377
0.010191
0.00321695
37.0783
37.0757
37.0801
37.0928
37.1146
37.1475
37.1944
37.2571
37.3454
37.3891
37.7397
37.4867
37.7048
0.184562
0.350816
-0.190197
0.0852819
0.0397619
0.034628
0.0320147
0.0280641
0.0229948
0.0170113
0.00993726
0.00313337
37.083
37.0761
37.0796
37.0921
37.1138
37.1467
37.1938
37.257
37.3459
37.3925
37.7431
37.4928
37.7137
0.182354
0.347006
-0.190856
0.0841122
0.0390189
0.0340432
0.0315245
0.0276668
0.0226887
0.0167944
0.00980905
0.00309202
37.1747
37.1726
37.1831
37.2034
37.2323
37.269
37.3125
37.3583
37.4257
37.245
37.7399
37.3352
37.5159
0.284476
0.446081
-0.0971838
0.169915
0.115784
0.101226
0.088617
0.0744232
0.0590255
0.0427205
0.0253583
0.00827616
37.1689
37.1709
37.182
37.2024
37.2314
37.2681
37.3117
37.3575
37.4247
37.2463
37.7351
37.3337
37.516
0.284597
0.447176
-0.0980236
0.169537
0.115247
0.10072
0.0881883
0.0740716
0.0587521
0.0425257
0.0252408
0.00823609
37.1651
37.1684
37.18
37.2005
37.2295
37.2662
37.3098
37.3558
37.4226
37.2477
37.7322
37.3325
37.5162
0.283899
0.444924
-0.0996461
0.168132
0.114068
0.0997081
0.08733
0.0733693
0.0582069
0.0421375
0.0250083
0.00815845
37.161
37.165
37.177
37.1976
37.2265
37.2632
37.3068
37.353
37.4194
37.2492
37.7285
37.3315
37.5162
0.282654
0.443947
-0.101664
0.166339
0.112368
0.0982078
0.0860544
0.0723253
0.0573968
0.0415609
0.0246634
0.00804376
37.1565
37.1611
37.1733
37.1939
37.2227
37.2592
37.3028
37.3493
37.415
37.251
37.724
37.3302
37.5157
0.280448
0.440887
-0.104455
0.163836
0.110117
0.0962331
0.084377
0.070953
0.0563322
0.0408034
0.0242107
0.00789342
37.1518
37.1565
37.1688
37.1893
37.218
37.2544
37.2979
37.3446
37.4096
37.2528
37.7191
37.3288
37.515
0.27707
0.437587
-0.107825
0.160738
0.107355
0.0938124
0.0823198
0.0692703
0.0550273
0.039875
0.023656
0.00770934
37.1466
37.1514
37.1637
37.184
37.2125
37.2486
37.2921
37.3389
37.4031
37.2542
37.7142
37.3272
37.514
0.272986
0.433543
-0.11176
0.157083
0.104113
0.0909747
0.0799093
0.0672993
0.0534993
0.0387882
0.0230067
0.00749399
37.1411
37.1459
37.158
37.1781
37.2062
37.2421
37.2854
37.3324
37.3959
37.2561
37.7086
37.3256
37.5131
0.268268
0.428884
-0.116209
0.152919
0.100434
0.0877574
0.0771776
0.0650666
0.0517689
0.0375577
0.0222718
0.00725029
37.1353
37.1399
37.1519
37.1716
37.1994
37.2349
37.278
37.3251
37.3881
37.2584
37.7025
37.3243
37.5124
0.26298
0.423681
-0.12112
0.148305
0.0963677
0.084204
0.074162
0.0626028
0.0498601
0.0362006
0.0214613
0.0069816
37.1292
37.1337
37.1454
37.1647
37.192
37.2271
37.2699
37.3172
37.3798
37.2614
37.696
37.3235
37.5121
0.2572
0.418017
-0.126428
0.143307
0.0919693
0.0803637
0.0709046
0.0599427
0.0477996
0.034736
0.0205868
0.00669173
37.123
37.1273
37.1386
37.1575
37.1843
37.2189
37.2614
37.3088
37.3713
37.265
37.6895
37.3234
37.5125
0.251019
0.411978
-0.132061
0.138001
0.0873018
0.0762912
0.0674522
0.0571244
0.0456175
0.0331853
0.019661
0.00638486
37.1167
37.1208
37.1317
37.1501
37.1763
37.2104
37.2526
37.3001
37.3628
37.2693
37.683
37.3243
37.514
0.244524
0.405658
-0.137941
0.132464
0.0824335
0.0720463
0.0638556
0.0541897
0.0433459
0.0315715
0.0186976
0.00606554
37.1104
37.1143
37.1247
37.1425
37.1681
37.2018
37.2437
37.2914
37.3546
37.2744
37.6771
37.3266
37.5171
0.237817
0.399154
-0.143978
0.126782
0.077438
0.067693
0.0601691
0.051183
0.0410194
0.0299191
0.0177114
0.00573863
37.1043
37.1079
37.1178
37.1351
37.16
37.1932
37.2349
37.2829
37.3469
37.2804
37.6721
37.3306
37.522
0.231003
0.392569
-0.150082
0.121043
0.0723928
0.063299
0.05645
0.0481509
0.0386742
0.0282539
0.0167176
0.00540926
37.0983
37.1017
37.1111
37.1277
37.152
37.1847
37.2263
37.2748
37.3399
37.2873
37.6682
37.3366
37.5293
0.22419
0.386006
-0.156153
0.115339
0.067378
0.058934
0.0527575
0.0451418
0.0363475
0.0266023
0.0157321
0.00508267
37.0927
37.0958
37.1047
37.1207
37.1444
37.1766
37.218
37.2674
37.3338
37.295
37.6659
37.3449
37.5391
0.217483
0.37957
-0.162092
0.109762
0.0624759
0.0546694
0.0491517
0.0422047
0.0340772
0.0249911
0.0147709
0.00476417
37.0876
37.0903
37.0987
37.1141
37.1371
37.1689
37.2104
37.2607
37.3289
37.3036
37.6652
37.3554
37.5516
0.210999
0.373366
-0.167796
0.104402
0.0577683
0.0505767
0.0456929
0.0393884
0.031901
0.0234471
0.0138499
0.00445904
37.0829
37.0854
37.0932
37.1079
37.1304
37.1618
37.2034
37.2549
37.325
37.3128
37.6662
37.3681
37.5666
0.204835
0.367492
-0.173165
0.0993509
0.0533361
0.0467259
0.0424402
0.036741
0.0298559
0.0219964
0.0129847
0.00417243
37.0789
37.081
37.0883
37.1024
37.1243
37.1553
37.1972
37.25
37.3223
37.3224
37.6686
37.3825
37.5837
0.199094
0.362044
-0.178102
0.0946929
0.0492569
0.0431844
0.0394502
0.0343082
0.0279772
0.0206641
0.0121902
0.00390929
37.0756
37.0773
37.0841
37.0975
37.1189
37.1497
37.1919
37.2459
37.3206
37.3322
37.6721
37.3981
37.6021
0.193876
0.357116
-0.182514
0.0905092
0.0456037
0.0400156
0.036776
0.0321331
0.0262978
0.0194734
0.0114802
0.00367423
37.0731
37.0744
37.0805
37.0934
37.1144
37.145
37.1874
37.2427
37.3196
37.3415
37.6765
37.4139
37.621
0.189268
0.352349
-0.186326
0.0868752
0.0424432
0.0372769
0.0344656
0.0302545
0.0248479
0.0184455
0.0108675
0.00347143
37.0717
37.0722
37.0778
37.0902
37.1107
37.1411
37.1839
37.2403
37.3193
37.35
37.681
37.4285
37.639
0.185958
0.349819
-0.189363
0.0838823
0.0398357
0.0350194
0.0325615
0.0287067
0.0236535
0.017599
0.0103631
0.00330457
37.0713
37.0709
37.0758
37.0877
37.1079
37.1383
37.1813
37.2387
37.3194
37.3571
37.6851
37.441
37.655
0.183479
0.344739
-0.191931
0.0813303
0.0378042
0.0332832
0.0310987
0.0275181
0.0227366
0.0169493
0.00997621
0.00317674
37.0719
37.0703
37.0745
37.0861
37.1061
37.1364
37.1796
37.2377
37.3196
37.3624
37.688
37.4504
37.6675
0.180566
0.345429
-0.193298
0.0800364
0.0365019
0.0321088
0.0301057
0.026711
0.0221142
0.0165084
0.00971397
0.00309041
37.0766
37.0706
37.074
37.0854
37.1053
37.1355
37.1789
37.2374
37.3198
37.3655
37.6904
37.4558
37.6757
0.178309
0.341398
-0.194008
0.0788303
0.0357309
0.0315041
0.0295973
0.0262993
0.0217973
0.0162841
0.00958139
0.00304763
37.1683
37.167
37.1777
37.198
37.2267
37.2631
37.3064
37.352
37.4187
37.2413
37.7326
37.3297
37.5112
0.283158
0.44425
-0.0961006
0.167096
0.115212
0.101064
0.0886922
0.0746993
0.0594281
0.0431557
0.025719
0.00843817
37.1625
37.1652
37.1766
37.197
37.2257
37.2622
37.3055
37.3512
37.4176
37.2426
37.7272
37.3281
37.5113
0.283243
0.44531
-0.0969702
0.16668
0.114647
0.100535
0.088245
0.0743334
0.0591441
0.0429538
0.0255975
0.00839686
37.1586
37.1627
37.1746
37.195
37.2237
37.2601
37.3034
37.3492
37.4153
37.244
37.7237
37.3266
37.5114
0.282507
0.442979
-0.0986617
0.165212
0.113414
0.0994782
0.0873502
0.0736025
0.0585775
0.042551
0.0253565
0.00831654
37.1545
37.1593
37.1716
37.1921
37.2207
37.257
37.3002
37.3462
37.4117
37.2455
37.7191
37.3251
37.5111
0.281185
0.441864
-0.100786
0.163321
0.111634
0.0979115
0.0860201
0.0725157
0.0577356
0.0419526
0.024999
0.0081978
37.15
37.1553
37.1677
37.1882
37.2167
37.2528
37.296
37.342
37.4068
37.2468
37.7139
37.3233
37.5101
0.278793
0.438681
-0.10371
0.160688
0.109275
0.0958463
0.0842699
0.0710867
0.0566289
0.0411661
0.0245295
0.00804206
37.1452
37.1506
37.1632
37.1835
37.2118
37.2477
37.2907
37.3368
37.4006
37.2477
37.7083
37.3212
37.5086
0.275237
0.435173
-0.107249
0.157431
0.106378
0.0933147
0.0821228
0.0693337
0.0552716
0.0402018
0.023954
0.00785131
37.14
37.1455
37.1579
37.1781
37.206
37.2416
37.2843
37.3305
37.3934
37.2485
37.702
37.3186
37.5066
0.270946
0.430897
-0.111383
0.153586
0.102978
0.0903452
0.0796056
0.0672794
0.0536816
0.0390724
0.02328
0.00762803
37.1344
37.1398
37.1521
37.172
37.1995
37.2347
37.2771
37.3232
37.3852
37.2495
37.6945
37.3157
37.5043
0.265974
0.42597
-0.116063
0.149204
0.0991166
0.0869765
0.0767514
0.0649509
0.0518799
0.0377929
0.0225167
0.00737519
37.1285
37.1338
37.1459
37.1653
37.1924
37.2271
37.269
37.315
37.3761
37.2508
37.686
37.3128
37.5018
0.260403
0.42047
-0.121233
0.144347
0.0948455
0.0832534
0.0735984
0.0623799
0.0498912
0.0363809
0.0216743
0.00709626
37.1224
37.1275
37.1392
37.1582
37.1847
37.2188
37.2603
37.306
37.3664
37.2525
37.6767
37.3099
37.4992
0.254307
0.414478
-0.126826
0.139084
0.0902227
0.0792268
0.0701903
0.0596019
0.0477431
0.0348561
0.0207649
0.00679512
37.1161
37.121
37.1323
37.1507
37.1766
37.21
37.251
37.2964
37.3563
37.2544
37.6666
37.3072
37.4969
0.247792
0.408088
-0.132768
0.133492
0.0853135
0.0749536
0.0665754
0.0566568
0.0454665
0.0332405
0.0198014
0.0064761
37.1097
37.1144
37.1252
37.143
37.1682
37.2009
37.2413
37.2864
37.3459
37.2568
37.6561
37.3051
37.495
0.240936
0.401396
-0.138976
0.127653
0.0801894
0.0704961
0.0628067
0.0535876
0.0430949
0.0315579
0.0187981
0.0061439
37.1033
37.1077
37.1181
37.1352
37.1596
37.1916
37.2314
37.2763
37.3356
37.2596
37.6455
37.3039
37.494
0.233855
0.394506
-0.145356
0.121658
0.0749274
0.0659212
0.0589409
0.0504408
0.0406641
0.0298339
0.0177702
0.00580358
37.0971
37.1012
37.111
37.1274
37.151
37.1823
37.2215
37.2663
37.3257
37.263
37.6353
37.3038
37.4943
0.226656
0.387526
-0.151813
0.115599
0.0696089
0.0612998
0.0550379
0.0472651
0.0382119
0.0280952
0.0167337
0.00546044
37.091
37.0949
37.1041
37.1198
37.1426
37.1731
37.2118
37.2566
37.3163
37.2669
37.626
37.3055
37.4964
0.219453
0.380567
-0.158241
0.109573
0.0643186
0.0567054
0.0511597
0.044111
0.0357774
0.0263695
0.0157052
0.00511994
37.0853
37.0889
37.0975
37.1125
37.1345
37.1642
37.2024
37.2476
37.3079
37.2715
37.6179
37.3091
37.5007
0.212359
0.373739
-0.164535
0.103677
0.0591434
0.0522134
0.0473699
0.0410302
0.0334003
0.0246849
0.0147012
0.00478765
37.0801
37.0833
37.0914
37.1055
37.1267
37.1558
37.1937
37.2393
37.3005
37.2768
37.6115
37.315
37.5075
0.205502
0.367154
-0.170585
0.0980088
0.0541701
0.0478992
0.043732
0.0380741
0.0311201
0.0230695
0.0137387
0.00446909
37.0753
37.0782
37.0857
37.0991
37.1195
37.148
37.1856
37.2318
37.2944
37.2828
37.6069
37.3231
37.517
0.198973
0.360918
-0.176285
0.0926635
0.0494847
0.0438374
0.0403086
0.0352935
0.028976
0.0215508
0.0128339
0.00416968
37.0712
37.0737
37.0806
37.0933
37.113
37.1409
37.1784
37.2254
37.2895
37.2893
37.6042
37.3333
37.5288
0.192901
0.355132
-0.18153
0.0877327
0.0451697
0.0400994
0.0371597
0.0327368
0.0270052
0.0201552
0.0120026
0.00389463
37.0679
37.0699
37.0762
37.0883
37.1073
37.1347
37.1721
37.2199
37.2857
37.296
37.6031
37.3448
37.5423
0.187377
0.349897
-0.186222
0.0833026
0.0413032
0.0367527
0.0343417
0.0304496
0.0252425
0.0189072
0.0112593
0.00364878
37.0654
37.0669
37.0726
37.084
37.1024
37.1294
37.1668
37.2155
37.283
37.3027
37.6031
37.3569
37.5567
0.182487
0.344862
-0.190279
0.0794534
0.0379565
0.0338588
0.0319058
0.0284731
0.0237199
0.0178295
0.0106176
0.00343657
37.0638
37.0647
37.0697
37.0805
37.0984
37.1251
37.1625
37.212
37.2812
37.3089
37.6037
37.3684
37.5708
0.178986
0.342156
-0.19352
0.0762859
0.0351955
0.0314729
0.0298974
0.026844
0.0224651
0.0169415
0.010089
0.00326187
37.0634
37.0634
37.0676
37.0779
37.0955
37.1218
37.1593
37.2095
37.28
37.3143
37.6046
37.3782
37.5834
0.176354
0.336731
-0.19626
0.0735812
0.0330379
0.0296344
0.0283536
0.0255925
0.0215014
0.0162597
0.00968333
0.00312797
37.064
37.0627
37.0663
37.0763
37.0935
37.1197
37.1572
37.2079
37.2794
37.3184
37.6048
37.3854
37.5934
0.173253
0.33758
-0.197721
0.0722095
0.0316579
0.0283909
0.0273054
0.0247425
0.0208471
0.0157968
0.00940824
0.00303746
37.0686
37.063
37.0658
37.0755
37.0926
37.1188
37.1563
37.2073
37.2792
37.3212
37.6052
37.3895
37.5999
0.170926
0.333279
-0.198496
0.0709451
0.0308429
0.0277537
0.0267691
0.0243087
0.0205138
0.0155611
0.00926899
0.0029925
37.1608
37.1599
37.1707
37.1908
37.2192
37.2553
37.2982
37.3437
37.4094
37.2362
37.7228
37.3225
37.5045
0.281252
0.441737
-0.0944651
0.16342
0.114492
0.100908
0.0888539
0.075125
0.0600137
0.0437735
0.0262244
0.0086633
37.155
37.1581
37.1697
37.1899
37.2182
37.2543
37.2972
37.3427
37.4082
37.2376
37.7171
37.3207
37.5046
0.281299
0.442757
-0.0953761
0.162955
0.113889
0.100347
0.0883821
0.07474
0.0597156
0.043562
0.0260974
0.00862031
37.1511
37.1555
37.1675
37.1878
37.2161
37.2521
37.295
37.3405
37.4056
37.239
37.7128
37.3189
37.5045
0.280487
0.440316
-0.0971606
0.161404
0.112585
0.0992306
0.0874383
0.0739708
0.0591208
0.0431399
0.0258453
0.00853642
37.1469
37.1521
37.1645
37.1848
37.213
37.2488
37.2915
37.3371
37.4014
37.24
37.7075
37.3168
37.5036
0.279056
0.439017
-0.0994276
0.159376
0.110695
0.0975733
0.0860348
0.0728269
0.0582364
0.0425123
0.025471
0.00841229
37.1424
37.148
37.1605
37.1808
37.2088
37.2443
37.2868
37.3324
37.3958
37.2405
37.7016
37.3143
37.5019
0.276419
0.435662
-0.102534
0.156567
0.108189
0.0953875
0.0841874
0.071322
0.0570733
0.0416872
0.0249791
0.0082494
37.1375
37.1433
37.1559
37.1759
37.2036
37.2388
37.281
37.3264
37.3888
37.2405
37.6946
37.3111
37.4993
0.272615
0.431873
-0.106299
0.153094
0.105113
0.0927066
0.0819196
0.069475
0.0556461
0.040675
0.0243758
0.00804974
37.1322
37.138
37.1505
37.1703
37.1976
37.2323
37.2741
37.3193
37.3805
37.2405
37.6862
37.3071
37.4958
0.268015
0.42728
-0.110703
0.148992
0.101498
0.0895597
0.0792592
0.067309
0.0539731
0.0394886
0.0236689
0.00781587
37.1266
37.1323
37.1445
37.1639
37.1907
37.2249
37.2661
37.3109
37.3709
37.2404
37.6762
37.3024
37.4914
0.262691
0.42199
-0.115695
0.144317
0.0973902
0.0859872
0.0762403
0.0648521
0.052076
0.0381436
0.0228675
0.00755083
37.1206
37.1261
37.1381
37.157
37.1832
37.2167
37.2572
37.3015
37.3603
37.2403
37.6644
37.297
37.4862
0.256724
0.416083
-0.121216
0.139131
0.0928426
0.0820353
0.0729026
0.062137
0.0499801
0.036658
0.0219826
0.00725819
37.1143
37.1197
37.1312
37.1496
37.1751
37.2078
37.2475
37.2911
37.3486
37.2401
37.651
37.2912
37.4802
0.250197
0.409646
-0.127196
0.133508
0.0879161
0.0777573
0.0692915
0.0592007
0.0477143
0.0350524
0.0210263
0.00694198
37.1079
37.113
37.1241
37.1418
37.1665
37.1983
37.2371
37.2799
37.3363
37.2397
37.6359
37.2848
37.4736
0.243203
0.402776
-0.133558
0.127528
0.0826796
0.0732129
0.0654577
0.0560848
0.0453108
0.0333497
0.0200122
0.00660669
37.1014
37.1063
37.1168
37.1337
37.1575
37.1884
37.2262
37.2682
37.3233
37.2393
37.6196
37.2782
37.4664
0.235849
0.395578
-0.140211
0.12128
0.0772084
0.0684678
0.0614567
0.0528345
0.0428046
0.0315748
0.0189553
0.00625725
37.0949
37.0995
37.1094
37.1256
37.1484
37.1782
37.215
37.2562
37.3102
37.2388
37.6023
37.2714
37.4588
0.228247
0.388161
-0.147059
0.114859
0.0715845
0.0635927
0.0573485
0.0494987
0.0402334
0.0297544
0.0178715
0.00589892
37.0886
37.0928
37.1021
37.1174
37.1393
37.168
37.2037
37.2441
37.2971
37.2382
37.5846
37.265
37.4514
0.220513
0.380641
-0.153996
0.108364
0.0658946
0.058663
0.0531965
0.0461289
0.0376371
0.0279169
0.0167777
0.00553728
37.0824
37.0863
37.095
37.1095
37.1302
37.1579
37.1926
37.2323
37.2845
37.2378
37.5671
37.2596
37.4449
0.212762
0.373138
-0.160912
0.101899
0.0602295
0.0537573
0.049067
0.042779
0.0350571
0.0260913
0.0156911
0.00517808
37.0766
37.0801
37.0882
37.1017
37.1215
37.148
37.1818
37.2211
37.2727
37.2378
37.5507
37.2557
37.4399
0.205132
0.365773
-0.167691
0.0955687
0.0546823
0.0489562
0.0450276
0.0395037
0.0325355
0.0243077
0.0146296
0.00482721
37.0712
37.0744
37.0818
37.0944
37.1131
37.1386
37.1715
37.2105
37.262
37.2382
37.5359
37.2539
37.4372
0.19774
0.358666
-0.174216
0.0894784
0.0493469
0.0443409
0.0411467
0.0363583
0.0301148
0.0225958
0.013611
0.00449055
37.0664
37.0692
37.0759
37.0877
37.1054
37.1299
37.162
37.2009
37.2526
37.2393
37.5232
37.2543
37.4372
0.190714
0.351933
-0.180369
0.0837315
0.044316
0.0399917
0.0374914
0.0333971
0.0278366
0.0209851
0.0126528
0.00417388
37.0622
37.0646
37.0706
37.0816
37.0983
37.1219
37.1533
37.1923
37.2446
37.2409
37.5127
37.2571
37.4397
0.184169
0.345687
-0.186038
0.0784273
0.039679
0.0359859
0.0341265
0.0306722
0.025741
0.0195038
0.0117716
0.00388273
37.0587
37.0607
37.0661
37.0762
37.0921
37.1148
37.1457
37.1848
37.238
37.2431
37.5043
37.261
37.4443
0.178213
0.340033
-0.191113
0.0736598
0.0355208
0.0323965
0.0311127
0.0282326
0.0238653
0.0181784
0.0109833
0.00362232
37.0561
37.0576
37.0622
37.0716
37.0868
37.1088
37.1392
37.1786
37.2326
37.2456
37.4976
37.2652
37.4502
0.172944
0.33462
-0.19551
0.069515
0.031919
0.0292905
0.0285058
0.0261232
0.022244
0.017033
0.0103022
0.00339737
37.0545
37.0553
37.0592
37.0679
37.0824
37.1039
37.134
37.1736
37.2286
37.2482
37.4922
37.2694
37.4564
0.169168
0.331714
-0.199023
0.06611
0.0289472
0.0267289
0.0263553
0.0243834
0.0209071
0.0160887
0.00974088
0.00321207
37.0541
37.0538
37.057
37.0652
37.0792
37.1002
37.1301
37.1698
37.2256
37.2507
37.4878
37.2733
37.4619
0.166317
0.325775
-0.202005
0.0631992
0.0266224
0.0247529
0.0247014
0.0230463
0.01988
0.0153633
0.00930984
0.00306994
37.0546
37.0532
37.0557
37.0634
37.077
37.0978
37.1275
37.1674
37.2237
37.2528
37.484
37.2763
37.4663
0.16299
0.326793
-0.203603
0.0617211
0.0251336
0.0234163
0.0235782
0.0221378
0.0191823
0.0148707
0.00901735
0.00297379
37.0592
37.0535
37.0551
37.0626
37.076
37.0966
37.1263
37.1664
37.2229
37.2549
37.4817
37.2772
37.4691
0.16052
0.322179
-0.204459
0.060373
0.0242578
0.0227317
0.0230035
0.021674
0.0188266
0.0146195
0.00886907
0.00292586
37.1522
37.1515
37.1623
37.1821
37.21
37.2456
37.2881
37.3333
37.3979
37.2299
37.7108
37.3133
37.4958
0.278813
0.43857
-0.0922402
0.158915
0.113595
0.100748
0.0891037
0.0757059
0.0607892
0.0445794
0.026878
0.0089527
37.1464
37.1496
37.1611
37.1811
37.209
37.2445
37.2869
37.3322
37.3966
37.2314
37.7046
37.3113
37.4959
0.278787
0.439536
-0.0932066
0.158387
0.112945
0.10015
0.0886012
0.075297
0.0604735
0.0443559
0.0267442
0.0089076
37.1425
37.147
37.159
37.1789
37.2068
37.2422
37.2845
37.3296
37.3935
37.2325
37.6997
37.3091
37.4954
0.277881
0.436955
-0.0951095
0.156732
0.111551
0.0989572
0.087596
0.0744801
0.0598432
0.0439096
0.0264782
0.00881929
37.1382
37.1435
37.1558
37.1758
37.2035
37.2386
37.2806
37.3257
37.3887
37.2327
37.6939
37.3065
37.4939
0.276315
0.435417
-0.0975565
0.154529
0.109521
0.0971858
0.0861004
0.0732645
0.0589056
0.0432457
0.0260829
0.00868846
37.1337
37.1394
37.1518
37.1716
37.199
37.2338
37.2755
37.3203
37.3823
37.2323
37.6868
37.303
37.4912
0.273354
0.431844
-0.100893
0.1515
0.106831
0.094848
0.0841306
0.0716645
0.057672
0.0423722
0.0255631
0.00851664
37.1287
37.1346
37.147
37.1666
37.1936
37.2279
37.2691
37.3136
37.3742
37.2315
37.6779
37.2984
37.4871
0.269231
0.427699
-0.104947
0.147752
0.103526
0.0919786
0.081711
0.0696993
0.0561571
0.0412999
0.0249251
0.00830586
37.1233
37.1292
37.1414
37.1607
37.1872
37.2209
37.2615
37.3054
37.3646
37.2304
37.6669
37.2927
37.4816
0.264242
0.422698
-0.109695
0.143324
0.0996389
0.0886077
0.0788701
0.0673928
0.0543799
0.0400421
0.0241768
0.00805874
37.1175
37.1233
37.1353
37.1541
37.1799
37.2129
37.2526
37.2958
37.3534
37.2289
37.6534
37.2856
37.4745
0.258462
0.416941
-0.115084
0.138274
0.0952179
0.084777