/*--------------------------------*- C++ -*----------------------------------*\
  =========                 |
  \\      /  F ield         | OpenFOAM: The Open Source CFD Toolbox
   \\    /   O peration     | Website:  https://openfoam.org
    \\  /    A nd           | Version:  11
     \\/     M anipulation  |
\*---------------------------------------------------------------------------*/
FoamFile
{
    format      ascii;
    class       volScalarField;
    location    "50";
    object      k;
}
// * * * * * * * * * * * * * * * * * * * * * * * * * * * * * * * * * * * * * //

dimensions      [0 2 -2 0 0 0 0];

internalField   nonuniform List<scalar> 
17196
(
0.00947864
0.00777333
0.00658161
0.00573582
0.00487418
0.00410653
0.00321947
0.00233129
0.0017488
0.00128067
0.00121674
0.00844761
0.0114308
0.0110664
0.0114057
0.0119925
0.0109478
0.0107985
0.00944536
0.00823895
0.00514947
0.00659014
0.00949993
0.0143909
0.0239226
0.00950746
0.00867199
0.00766343
0.00691251
0.00604153
0.00537402
0.00431115
0.00338904
0.00269446
0.00178184
0.00137874
0.0130968
0.0155501
0.0159327
0.015918
0.0172912
0.01631
0.0154551
0.0149093
0.0115979
0.010569
0.0148631
0.0193953
0.021125
0.0337347
0.0098574
0.00861737
0.00773797
0.00693017
0.00615317
0.00544497
0.00461422
0.00378288
0.00330854
0.00245246
0.00475207
0.015133
0.0172035
0.0176389
0.0182168
0.019436
0.0180994
0.0166498
0.0157526
0.014145
0.0145003
0.0187111
0.0237323
0.0275886
0.0372995
0.00989341
0.00860939
0.0077085
0.00693036
0.00616991
0.005479
0.0046919
0.00405146
0.00365168
0.00303091
0.0118611
0.0179673
0.0208157
0.0214566
0.0224152
0.0232583
0.0204238
0.0182891
0.0170335
0.0170372
0.0182969
0.0215357
0.0277861
0.0323112
0.045043
0.00980356
0.00869448
0.00775097
0.00713783
0.00629672
0.00575857
0.00496386
0.00449706
0.00420137
0.00435588
0.0157009
0.0208082
0.0248276
0.0259483
0.0285757
0.0277389
0.0228193
0.0201904
0.019045
0.0198514
0.0210378
0.0259255
0.0335812
0.0397897
0.0556037
0.00986079
0.00866611
0.00781025
0.00706514
0.00636676
0.00577196
0.00496644
0.00483021
0.00461305
0.00875728
0.0181042
0.024247
0.0297867
0.0325908
0.0370694
0.0336229
0.0250704
0.0225625
0.0227215
0.0233447
0.025253
0.0324957
0.0423486
0.0510698
0.0712687
0.00983447
0.00867754
0.0079813
0.00715961
0.00664956
0.00592913
0.00543935
0.00534019
0.00524271
0.0127372
0.0208253
0.0275163
0.0339333
0.0407436
0.0484677
0.0425982
0.0299177
0.0271154
0.0278652
0.0286666
0.0325208
0.0435897
0.0557697
0.0683444
0.0928784
0.00981717
0.00878387
0.00795819
0.00718785
0.00670319
0.00592917
0.00542253
0.00540538
0.0060616
0.0158468
0.0239288
0.0309165
0.0400736
0.0565123
0.0669213
0.0567421
0.0369768
0.0343541
0.0361557
0.0375735
0.0446485
0.0598143
0.0747857
0.0930825
0.119568
0.00971404
0.00890694
0.00803358
0.00741905
0.00697524
0.00601696
0.00594545
0.00601706
0.00866959
0.0177809
0.0271427
0.0361426
0.0493943
0.0832194
0.0918136
0.0752143
0.0494386
0.0494541
0.049501
0.0528986
0.0642101
0.0826454
0.100408
0.12716
0.149292
0.00978091
0.00891353
0.00810269
0.007524
0.00687962
0.00634329
0.00633755
0.00647868
0.0104692
0.0185813
0.0310417
0.0436234
0.067447
0.127085
0.124104
0.101438
0.0704133
0.0719154
0.0720454
0.0783915
0.0937613
0.113225
0.133909
0.165357
0.175185
0.00969165
0.00900316
0.00825439
0.00769718
0.00704778
0.00667272
0.00665318
0.00688488
0.00995241
0.0178784
0.0358311
0.0542796
0.0950499
0.157528
0.171664
0.142482
0.107236
0.107501
0.106395
0.116695
0.135411
0.150615
0.166865
0.201429
0.200861
0.00970039
0.00906623
0.0083013
0.0077006
0.00722196
0.00673869
0.00670457
0.00656905
0.011616
0.0157425
0.0436123
0.0718642
0.137396
0.185716
0.257153
0.196287
0.172001
0.16427
0.161689
0.164674
0.175301
0.181841
0.199712
0.237119
0.231057
0.00965204
0.00911741
0.00848045
0.00789147
0.00731001
0.00679355
0.00671534
0.00706332
0.00903952
0.0108054
0.0553529
0.0945847
0.165179
0.21573
0.319325
0.264106
0.249349
0.238065
0.220842
0.205607
0.205655
0.212486
0.236953
0.272315
0.271146
0.00970214
0.00912152
0.00855244
0.00788341
0.00712719
0.0068414
0.00651003
0.00818323
0.00787011
0.0202929
0.0656522
0.104516
0.1685
0.220818
0.328223
0.341582
0.337913
0.324657
0.259803
0.230801
0.226707
0.239213
0.280119
0.308813
0.318834
0.0096783
0.00914268
0.00863583
0.00771283
0.00705836
0.00703335
0.0062531
0.00613203
0.00578835
0.0250989
0.0697912
0.105521
0.15221
0.275438
0.320332
0.430463
0.448117
0.381669
0.287749
0.25978
0.245854
0.259239
0.311544
0.343506
0.342148
0.00969013
0.0091454
0.00853322
0.0075014
0.00722804
0.00738552
0.00607741
0.00888317
0.00703172
0.0390238
0.0702725
0.0975735
0.192957
0.274327
0.312295
0.416485
0.475693
0.439507
0.341681
0.299902
0.265139
0.254479
0.310869
0.307616
0.319027
0.00970573
0.00910831
0.0083946
0.00720733
0.00740898
0.00771894
0.00791831
0.0114971
0.0132452
0.0392886
0.0706134
0.110767
0.179972
0.233312
0.281321
0.34821
0.437053
0.491397
0.40299
0.316805
0.243409
0.249738
0.242638
0.252865
0.27091
0.00967463
0.00911124
0.00834628
0.00705807
0.00766179
0.00839927
0.00987843
0.0157749
0.0170107
0.0387622
0.0528833
0.0833513
0.129047
0.279404
0.317833
0.354294
0.394963
0.496462
0.379736
0.270644
0.20671
0.192214
0.184014
0.197729
0.208062
0.00965712
0.00912746
0.00798953
0.00686809
0.00830807
0.00994881
0.0112592
0.0166787
0.0258106
0.0400719
0.0539572
0.0780552
0.133743
0.217173
0.214446
0.209424
0.201737
0.320463
0.33039
0.246835
0.191655
0.156649
0.153251
0.156837
0.170991
0.00962237
0.00912858
0.0076614
0.00789896
0.00957655
0.0109159
0.0128994
0.0180025
0.0275508
0.0403849
0.0526768
0.0697904
0.103622
0.0979924
0.121337
0.0982765
0.107862
0.17855
0.244693
0.207467
0.169877
0.129991
0.122728
0.121554
0.138107
0.0096115
0.00914802
0.00745846
0.00742741
0.0109024
0.0118405
0.0178178
0.0167913
0.0288872
0.0351879
0.0403038
0.0448511
0.0718658
0.068292
0.0660575
0.0505087
0.0588764
0.0854025
0.169452
0.14945
0.136287
0.106634
0.0980183
0.0952799
0.112989
0.00965053
0.00912316
0.00715982
0.00737176
0.0144564
0.0162657
0.0188247
0.0168524
0.0305531
0.0392477
0.0444959
0.0540046
0.0463478
0.0541194
0.0558273
0.0396812
0.033042
0.042001
0.101229
0.101542
0.102105
0.082054
0.0717465
0.0736417
0.0839316
0.00990658
0.00864177
0.00706051
0.00952481
0.0168083
0.0185488
0.0196769
0.0220986
0.0298393
0.0322149
0.0419769
0.0466975
0.0601062
0.051301
0.05128
0.036414
0.0282458
0.0266433
0.0593304
0.0726899
0.0752058
0.0613346
0.0539761
0.0552105
0.0610022
0.00985828
0.00813899
0.00719932
0.0086348
0.00992839
0.0128374
0.0156535
0.0235819
0.0268555
0.0283025
0.034442
0.035107
0.0375085
0.0448858
0.0406102
0.0339462
0.0261477
0.0229931
0.0250418
0.0570667
0.0610207
0.0511893
0.0467407
0.0459238
0.0492654
0.00915957
0.00721205
0.00619433
0.00684507
0.00545571
0.00981532
0.015873
0.0178267
0.0198273
0.0146428
0.017066
0.018414
0.0211161
0.0243677
0.0204335
0.0208145
0.0166036
0.0139702
0.0107016
0.0328315
0.041814
0.035891
0.032582
0.0326007
0.0353665
0.00964689
0.00796833
0.00698803
0.00637341
0.00593806
0.00555388
0.00467531
0.003734
0.00339513
0.00313464
0.003692
0.0106905
0.014198
0.0154207
0.0161483
0.0150756
0.0143249
0.0139967
0.0135858
0.0138673
0.0139705
0.0142031
0.0184958
0.0278965
0.0464071
0.00331597
0.00144196
0.00119527
0.00127926
0.00149982
0.00199298
0.00272321
0.00294473
0.00334237
0.00529501
0.00788086
0.0182165
0.0221827
0.0283159
0.0262431
0.0236448
0.0225554
0.0207401
0.0202426
0.0205683
0.0236459
0.0330933
0.0419394
0.0457304
0.0587628
0.00326898
0.00140997
0.00115373
0.0012337
0.00143052
0.00172541
0.00218626
0.00283467
0.00345997
0.00635864
0.0131799
0.0207098
0.0236019
0.0289722
0.0286561
0.0259935
0.024214
0.0217741
0.0212803
0.0222821
0.0276839
0.0354419
0.0421779
0.0454062
0.0602239
0.00327229
0.00140539
0.00113443
0.0011975
0.0013737
0.00162033
0.00204762
0.00266573
0.00352817
0.00750301
0.0162914
0.0207261
0.0226697
0.0275963
0.0295819
0.0290113
0.0268
0.0234383
0.0227145
0.0248448
0.0298557
0.0366849
0.0438064
0.0499602
0.0673007
0.00327206
0.00140021
0.00112596
0.00118772
0.00135217
0.00153584
0.00194142
0.00249668
0.00315181
0.00896128
0.0183789
0.0202142
0.0217311
0.0302164
0.0392262
0.0426021
0.0358471
0.028004
0.0250699
0.0264843
0.0294159
0.0382626
0.046296
0.0609637
0.0886853
0.00327324
0.00139768
0.00111013
0.00116444
0.00133576
0.00144012
0.0018713
0.00221353
0.00261785
0.0105281
0.0182736
0.0207653
0.0275865
0.0430854
0.0563374
0.0713324
0.0563017
0.0363553
0.0296684
0.0306476
0.0324745
0.0433469
0.0568397
0.084742
0.123384
0.00326602
0.00141678
0.00105445
0.00123266
0.00126647
0.00139643
0.0017727
0.00201333
0.00275273
0.0122816
0.0176741
0.0234453
0.0417691
0.0584054
0.0933626
0.117383
0.0839993
0.048681
0.0386331
0.0402707
0.042848
0.0567909
0.0812912
0.125425
0.156327
0.00326008
0.00142863
0.00102702
0.00120232
0.00126824
0.00135265
0.0014741
0.00163521
0.0050298
0.0124145
0.0189756
0.0329061
0.0673885
0.0985294
0.169536
0.180084
0.115203
0.0659962
0.0562938
0.0598021
0.065558
0.0945994
0.127801
0.178958
0.185933
0.0032486
0.00144108
0.00102925
0.00126014
0.00142367
0.00142648
0.00132037
0.00192807
0.00743162
0.0122896
0.0240605
0.0542852
0.105421
0.160816
0.279415
0.262234
0.155479
0.102219
0.0984174
0.10039
0.115561
0.16236
0.187477
0.220722
0.239508
0.00324711
0.00141574
0.00118614
0.00129423
0.001241
0.00120969
0.00120531
0.00253099
0.00665831
0.0144687
0.0350681
0.0811147
0.163564
0.270274
0.406783
0.356412
0.219411
0.17468
0.157862
0.167131
0.196663
0.230978
0.232585
0.242604
0.236731
0.00323199
0.00146565
0.00118918
0.00114124
0.00138503
0.00153701
0.001197
0.00186571
0.00870626
0.0217297
0.0526492
0.122936
0.253483
0.421231
0.531591
0.450914
0.324368
0.248526
0.237876
0.233685
0.269935
0.272378
0.269015
0.264425
0.244601
0.00322932
0.00148077
0.00128109
0.00119789
0.00169045
0.00174051
0.00135552
0.00184923
0.0113344
0.0292506
0.0747662
0.180897
0.355822
0.527456
0.636266
0.561632
0.436085
0.324247
0.272288
0.271876
0.326199
0.328032
0.314676
0.293381
0.276911
0.00321453
0.00156755
0.0013191
0.00189463
0.0019682
0.00147509
0.00129846
0.00428191
0.017222
0.0390433
0.102678
0.236725
0.399543
0.578165
0.717939
0.680025
0.53948
0.368967
0.30647
0.311001
0.377895
0.382623
0.373853
0.341074
0.336809
0.00321072
0.00162359
0.0015406
0.00225978
0.00226466
0.00182363
0.00207121
0.0067387
0.0243815
0.0431895
0.130774
0.275875
0.426234
0.608609
0.750472
0.773422
0.656709
0.419105
0.31344
0.33645
0.422635
0.467152
0.471031
0.426034
0.417213
0.00321679
0.00163752
0.00210638
0.00279172
0.00257852
0.00224681
0.0031426
0.0116065
0.0317984
0.0504648
0.141877
0.27858
0.44878
0.628677
0.765505
0.827518
0.744606
0.45846
0.33334
0.35978
0.449615
0.520237
0.54344
0.52096
0.488025
0.00321152
0.00177845
0.00222382
0.00253406
0.003054
0.00328256
0.00524637
0.0190889
0.0429622
0.0619032
0.138164
0.276482
0.401183
0.574285
0.772523
0.832368
0.813539
0.550612
0.382449
0.385628
0.434924
0.505634
0.562333
0.533259
0.494169
0.00321505
0.00188203
0.00247513
0.00268553
0.00404899
0.00477957
0.00789868
0.0262785
0.0466926
0.0668568
0.121405
0.260327
0.377868
0.529478
0.701906
0.854977
0.874332
0.698622
0.460636
0.400035
0.394198
0.443094
0.492724
0.481056
0.448849
0.00321931
0.00198005
0.0027187
0.00318686
0.00518383
0.00672124
0.0109771
0.0347367
0.0493473
0.0670833
0.112641
0.216852
0.315515
0.422788
0.547088
0.714325
0.876968
0.802427
0.526304
0.394799
0.349034
0.345935
0.356124
0.349717
0.337607
0.00318226
0.00232912
0.00278677
0.00366484
0.00665474
0.00786902
0.0173322
0.0450602
0.0520826
0.0704617
0.101118
0.165761
0.247016
0.318821
0.365419
0.4569
0.614046
0.805963
0.641777
0.454378
0.35707
0.278259
0.261035
0.264408
0.263516
0.00319669
0.00236681
0.0028848
0.00443271
0.00974974
0.00932407
0.0170086
0.0472902
0.0555924
0.0713035
0.0761746
0.136761
0.179072
0.190381
0.229888
0.219176
0.293907
0.404319
0.558377
0.470082
0.360922
0.234458
0.216265
0.220711
0.244274
0.00321757
0.00240108
0.00295483
0.00472956
0.0141369
0.00939983
0.0514316
0.0582368
0.0771456
0.06513
0.0688075
0.101075
0.117302
0.140566
0.125636
0.125584
0.127198
0.131265
0.24382
0.342362
0.301313
0.216927
0.187613
0.183618
0.198067
0.00323114
0.00247371
0.00316035
0.00545621
0.0164388
0.0152795
0.0370669
0.0492987
0.0669696
0.062666
0.0704172
0.0948426
0.0872772
0.0961214
0.1032
0.100486
0.0886379
0.0642194
0.102821
0.205218
0.181537
0.139428
0.135316
0.137506
0.172855
0.00314116
0.00276239
0.00436948
0.0112745
0.0149101
0.0276323
0.0305098
0.0338452
0.0577616
0.0529326
0.0702568
0.0839856
0.0822504
0.0868221
0.0842166
0.0801883
0.0677095
0.0508715
0.0655506
0.104053
0.117819
0.0944346
0.0778239
0.0834341
0.121823
0.00351649
0.00356326
0.0113828
0.0134009
0.00984823
0.0228531
0.0187128
0.0315399
0.0449073
0.0497012
0.0574637
0.0618626
0.0588457
0.0667082
0.0679277
0.0649851
0.0550735
0.042244
0.0362964
0.0589644
0.0848952
0.0722163
0.0639739
0.0596708
0.0822298
0.00939298
0.00773587
0.00745372
0.00702204
0.00636407
0.00551858
0.0104864
0.0199906
0.0223698
0.0250844
0.0252124
0.0251932
0.0297246
0.035591
0.0282324
0.0240246
0.027227
0.0215775
0.0137668
0.0301295
0.0483952
0.043202
0.0398933
0.0374763
0.0441208
0.00951487
0.00798293
0.0068731
0.00620717
0.00568938
0.0054932
0.00521469
0.0047686
0.00470598
0.00483283
0.00426644
0.0119018
0.0151672
0.0170456
0.0173596
0.0168198
0.0168928
0.0173648
0.0174958
0.0181522
0.0192808
0.0205801
0.0230662
0.0287155
0.0444606
0.00322284
0.00123798
0.000719097
0.000486468
0.000415932
0.000446596
0.000945683
0.00177699
0.00195177
0.0061146
0.0114844
0.0192161
0.0223354
0.0272265
0.0271389
0.0265433
0.0252832
0.0238791
0.0232396
0.0237259
0.0255613
0.0304513
0.0378464
0.0429481
0.0576321
0.00318634
0.00121376
0.000690744
0.000479533
0.000401015
0.000424039
0.000498666
0.000848527
0.00135099
0.00731243
0.0151499
0.0205479
0.0229113
0.0261163
0.0272368
0.0298384
0.0280823
0.0246725
0.0232944
0.0243177
0.0264519
0.0314323
0.0385059
0.0425355
0.0585677
0.00318698
0.00121763
0.00068337
0.000482877
0.000396224
0.000411435
0.000473135
0.000746437
0.0012565
0.00893942
0.0169889
0.0203339
0.020775
0.023532
0.0269645
0.0388119
0.0369506
0.0306485
0.0266211
0.0256783
0.0300105
0.0315824
0.0393155
0.0457803
0.0636958
0.00318587
0.00122316
0.000682479
0.000487336
0.000393573
0.000400702
0.000456007
0.000580652
0.00137625
0.00927382
0.0168276
0.01775
0.0193444
0.0252405
0.0360327
0.0683322
0.0649692
0.0489059
0.0342002
0.0316472
0.0312516
0.0356775
0.0400119
0.0522942
0.0822197
0.00318728
0.00122352
0.000679861
0.000486478
0.000386045
0.000376069
0.000424349
0.000486399
0.00158572
0.0111644
0.0173285
0.0184493
0.0247707
0.0474992
0.0755367
0.127159
0.120988
0.0785682
0.0486758
0.0399043
0.0390094
0.0418674
0.0487168
0.0697389
0.11664
0.00318554
0.00122776
0.00067917
0.00049278
0.000369775
0.0003698
0.000406726
0.000469718
0.00279836
0.0120524
0.0176891
0.0249982
0.0526991
0.117363
0.157501
0.220142
0.194186
0.116838
0.0674322
0.0571925
0.0543187
0.0602963
0.0693586
0.103849
0.168255
0.00318688
0.00122519
0.000678365
0.000485015
0.000371825
0.000323265
0.000367349
0.000628229
0.00456573
0.0112159
0.0216524
0.0566611
0.141803
0.220367
0.295871
0.324514
0.257623
0.144332
0.0966536
0.0914043
0.0913062
0.0982466
0.118495
0.156995
0.206993
0.00318469
0.0012261
0.000679401
0.00049002
0.000361606
0.000362302
0.000366089
0.00128528
0.00656892
0.0127423
0.0469767
0.126815
0.242801
0.381994
0.491497
0.435072
0.292986
0.195831
0.161856
0.156018
0.152599
0.167457
0.169354
0.186988
0.213533
0.00318675
0.00122149
0.000680403
0.000495154
0.000356953
0.000371471
0.000483601
0.00259398
0.00974039
0.0235675
0.0893971
0.196939
0.392045
0.625018
0.596499
0.495136
0.339808
0.255757
0.215148
0.19773
0.191764
0.187715
0.179307
0.189382
0.199282
0.00318542
0.00122074
0.000690892
0.000492795
0.000376898
0.000383936
0.000806987
0.00413289
0.015735
0.045838
0.130251
0.311375
0.589615
0.717728
0.685193
0.550284
0.386635
0.279469
0.223543
0.206998
0.198564
0.19071
0.185961
0.19859
0.209509
0.00318802
0.00121535
0.000708372
0.000478186
0.000454034
0.000452553
0.00138868
0.00440928
0.025206
0.0633857
0.185613
0.402917
0.643296
0.743696
0.74517
0.622989
0.394636
0.268212
0.21225
0.210415
0.212103
0.201633
0.215865
0.235651
0.244706
0.00318625
0.00122062
0.000710503
0.000517202
0.000515433
0.000520272
0.000918569
0.00857796
0.0343623
0.0649425
0.194942
0.422421
0.6591
0.764352
0.782913
0.66698
0.372841
0.233359
0.21778
0.247621
0.283808
0.271865
0.280223
0.275823
0.313996
0.00318808
0.00121998
0.000725398
0.000557652
0.000609566
0.000612657
0.000880674
0.0113203
0.0358168
0.0683447
0.184539
0.465986
0.668868
0.755068
0.80455
0.682643
0.34271
0.226553
0.237838
0.327587
0.4383
0.421831
0.396489
0.373062
0.419762
0.00318731
0.00122045
0.000753695
0.000616913
0.00071902
0.000763556
0.000995706
0.0156893
0.0401573
0.0820037
0.250512
0.449706
0.650608
0.753903
0.803044
0.721077
0.38241
0.240527
0.267831
0.366833
0.502346
0.536708
0.523816
0.50885
0.503359
0.00318546
0.00123752
0.000749918
0.000783141
0.000759881
0.000937547
0.00204155
0.0184563
0.0474539
0.114695
0.216148
0.42063
0.618969
0.714359
0.811763
0.777916
0.550658
0.323657
0.321576
0.378814
0.486308
0.555537
0.565141
0.556972
0.5294
0.00318288
0.00124689
0.000762929
0.000900745
0.000984252
0.00121754
0.00360864
0.0196203
0.0491373
0.0996075
0.19649
0.379926
0.548461
0.655677
0.757069
0.847628
0.79236
0.534222
0.399426
0.377169
0.428904
0.485981
0.525937
0.516763
0.466406
0.0031864
0.00122142
0.000901022
0.000992809
0.00124425
0.00153486
0.00293561
0.0239586
0.0519857
0.0819384
0.167029
0.306007
0.44622
0.559605
0.687011
0.827143
0.862602
0.716836
0.474923
0.406751
0.38077
0.37452
0.357541
0.35292
0.341236
0.00318104
0.00125107
0.000941282
0.000927303
0.00180047
0.00182658
0.00482953
0.0246956
0.0534296
0.0903873
0.140257
0.224746
0.3548
0.432203
0.535129
0.64184
0.836201
0.841128
0.669243
0.495505
0.381691
0.315568
0.282387
0.277951
0.264903
0.00318451
0.00124218
0.000993396
0.00101483
0.00246774
0.00212975
0.00452155
0.0289845
0.0547198
0.0769007
0.0991908
0.160165
0.223846
0.296941
0.373287
0.42486
0.489083
0.659904
0.718259
0.588231
0.430985
0.2975
0.263165
0.278183
0.263001
0.00319382
0.00119692
0.00109609
0.00139457
0.0033637
0.00284447
0.00793717
0.0369297
0.0608337
0.0734343
0.081566
0.116592
0.152926
0.194756
0.20184
0.255234
0.224315
0.231992
0.30553
0.388744
0.419071
0.330371
0.253558
0.220685
0.0076163
0.00319672
0.00118562
0.00122051
0.00186997
0.00449785
0.00572204
0.0170097
0.0446235
0.0574057
0.0650355
0.0846554
0.105067
0.102414
0.111197
0.111807
0.14244
0.105544
0.101364
0.0891753
0.130113
0.195755
0.243855
0.23313
0.128734
0.00477114
0.00317015
0.00137502
0.00179543
0.00347861
0.00434687
0.004921
0.0205259
0.0403103
0.0534009
0.0675448
0.0793483
0.0952846
0.0965637
0.0861662
0.0841682
0.0874491
0.0662956
0.0621712
0.0536905
0.0606798
0.0803887
0.101129
0.125594
0.129317
0.0869907
0.00318182
0.00251542
0.00547191
0.00998799
0.00807185
0.00923741
0.0142012
0.02848
0.0437459
0.0551833
0.0682835
0.0814764
0.0757687
0.0760464
0.0666188
0.0664427
0.0567432
0.0460058
0.0398929
0.0437628
0.0604272
0.0664693
0.0713485
0.070126
0.0822104
0.0094101
0.00840314
0.00727511
0.00704012
0.00689304
0.00660798
0.00580723
0.0144608
0.0233013
0.0327449
0.04058
0.046444
0.0446527
0.0372657
0.040763
0.0290903
0.0294888
0.0281197
0.0212968
0.0264969
0.0391837
0.0404189
0.04008
0.0370056
0.0454058
0.00959558
0.0080359
0.00693947
0.00626426
0.00573659
0.00548316
0.00543982
0.00512758
0.0049726
0.00524449
0.00485169
0.0100704
0.0152628
0.0174116
0.0172289
0.017549
0.0179101
0.0183433
0.018845
0.0198365
0.0208594
0.0217893
0.0237122
0.0272956
0.0375672
0.0032063
0.00123294
0.000704999
0.000477127
0.000340785
0.00027602
0.000527671
0.00112596
0.00138345
0.00464609
0.0122527
0.0187576
0.022769
0.0259627
0.0280075
0.0280336
0.0283674
0.0268956
0.02541
0.0248047
0.0256509
0.027984
0.031789
0.0352528
0.0474882
0.00318608
0.00121676
0.000682408
0.000455976
0.000351789
0.000270991
0.000254017
0.000298446
0.000404962
0.00492919
0.0156904
0.0215346
0.0238506
0.0264154
0.0291518
0.0352961
0.0356277
0.0319404
0.0281845
0.0245843
0.0251869
0.0257389
0.0290164
0.0324472
0.0457224
0.00318685
0.00121857
0.000682202
0.00045511
0.00035319
0.000272932
0.000247447
0.000273679
0.000428769
0.00628993
0.0164351
0.0200944
0.0225413
0.024391
0.0344536
0.0443279
0.0587252
0.0557385
0.0450364
0.0338547
0.0295004
0.0289944
0.0313707
0.0352968
0.0480866
0.00318665
0.00122218
0.000685596
0.000455696
0.000355547
0.000274927
0.000246312
0.000259159
0.000348781
0.00584021
0.0141047
0.0165772
0.0164158
0.02474
0.0608848
0.0948467
0.124958
0.112901
0.0800146
0.055059
0.0411173
0.0372155
0.0388364
0.0420508
0.0566767
0.0031875
0.00122316
0.000682332
0.000456039
0.000352987
0.000270236
0.000239191
0.000246687
0.000745194
0.00438153
0.0116851
0.0160624
0.0285138
0.110304
0.210474
0.223232
0.202937
0.163967
0.113222
0.0796786
0.0590772
0.0467395
0.047427
0.0517707
0.0762586
0.00318642
0.00122383
0.000684434
0.000456588
0.000355862
0.0002639
0.00024172
0.000299937
0.00265844
0.00755712
0.0174729
0.0555687
0.166383
0.358595
0.360573
0.300529
0.248102
0.192071
0.142146
0.106002
0.080909
0.0656701
0.0678137
0.0744035
0.11186
0.00318715
0.00122099
0.000680558
0.000457655
0.000347706
0.000248436
0.000248524
0.000835307
0.00838835
0.0252985
0.0931339
0.203843
0.447077
0.556776
0.516582
0.377658
0.281529
0.225788
0.176211
0.148928
0.123265
0.110124
0.108494
0.111445
0.153692
0.00318537
0.00122163
0.000677622
0.000468552
0.000328459
0.00024631
0.000298231
0.00244976
0.0231662
0.0711649
0.208414
0.377717
0.639367
0.71322
0.615373
0.434327
0.309972
0.246222
0.202564
0.17478
0.151629
0.139588
0.132594
0.141351
0.151963
0.00318675
0.00121827
0.000678282
0.000462943
0.000313826
0.000242141
0.000462511
0.00747631
0.0536181
0.118613
0.263551
0.544973
0.761425
0.803333
0.656488
0.455093
0.329166
0.247007
0.200856
0.172512
0.15522
0.137185
0.136242
0.145614
0.152238
0.00318555
0.00121731
0.000680973
0.000459097
0.000310541
0.000242952
0.00122129
0.0162474
0.0774155
0.117837
0.321293
0.630497
0.800963
0.807849
0.603638
0.387075
0.25747
0.195481
0.16898
0.152617
0.142192
0.139551
0.154781
0.180904
0.1887
0.00318731
0.00121436
0.000682286
0.000452203
0.000312452
0.000240305
0.00197509
0.030409
0.0796969
0.121927
0.324399
0.667062
0.809534
0.793043
0.613033
0.345434
0.234634
0.188901
0.166671
0.159441
0.157147
0.160054
0.18942
0.220526
0.273422
0.00318637
0.0012139
0.000684766
0.00045006
0.00031951
0.000259449
0.00372648
0.0377385
0.0761549
0.128774
0.340175
0.689502
0.791286
0.775589
0.620301
0.325653
0.217854
0.19661
0.191714
0.209757
0.219375
0.231541
0.255146
0.302049
0.427211
0.00318769
0.00121396
0.000686567
0.00044278
0.00034387
0.000285293
0.00496189
0.0487674
0.0864108
0.156513
0.422992
0.668216
0.767311
0.756866
0.617154
0.30516
0.213593
0.204803
0.233364
0.353958
0.400532
0.386822
0.385919
0.486172
0.610387
0.00318781
0.00121082
0.000698021
0.000434735
0.000370142
0.000328917
0.0111737
0.0513722
0.0801426
0.200417
0.381547
0.633436
0.730442
0.748727
0.66166
0.350638
0.210014
0.212937
0.273953
0.468385
0.591966
0.620335
0.645467
0.706425
0.707517
0.00318832
0.00121483
0.000694425
0.000453719
0.000396375
0.000177915
0.0123182
0.0447596
0.0782547
0.172367
0.33033
0.573798
0.688492
0.722849
0.739205
0.587902
0.32555
0.289751
0.323332
0.477301
0.66075
0.712581
0.744339
0.74715
0.642035
0.00318742
0.00121703
0.00069839
0.000465129
0.000462762
0.000405964
0.0133543
0.0285217
0.0561795
0.139082
0.270832
0.492694
0.620398
0.667361
0.722162
0.760478
0.573103
0.440689
0.420425
0.47695
0.610571
0.662253
0.66247
0.630346
0.492866
0.00318812
0.00121289
0.000703245
0.000502725
0.000521632
0.00050845
0.00794561
0.0231215
0.0503144
0.110587
0.236439
0.401739
0.51833
0.605235
0.692378
0.769675
0.721161
0.587643
0.513404
0.455579
0.425485
0.431562
0.420413
0.383547
0.316014
0.00318645
0.00121413
0.000708068
0.000501766
0.000586501
0.000604445
0.00530166
0.0245605
0.043622
0.0934317
0.187741
0.313368
0.41824
0.517679
0.608102
0.671941
0.66783
0.658513
0.572937
0.461821
0.383052
0.334927
0.300087
0.279888
0.249955
0.00318375
0.00122464
0.000686661
0.000537914
0.000679904
0.00078385
0.00350844
0.0265577
0.0487158
0.0839358
0.142104
0.225457
0.309768
0.354063
0.438671
0.528549
0.600494
0.685858
0.682467
0.525872
0.377999
0.308877
0.285186
0.296042
0.198433
0.00318245
0.00122794
0.00067725
0.000629825
0.000996556
0.00113795
0.00258236
0.0261382
0.0610255
0.0860515
0.112703
0.167615
0.231002
0.25548
0.293362
0.388302
0.386893
0.411667
0.379957
0.308494
0.284072
0.310792
0.301215
0.265374
0.0125886
0.0031884
0.00119746
0.00073225
0.000832861
0.00137688
0.00218098
0.0056643
0.0257371
0.0632254
0.0729842
0.0975724
0.131712
0.156411
0.168251
0.193562
0.232295
0.182057
0.118627
0.110193
0.0739754
0.0897617
0.120482
0.173718
0.16646
0.00421192
0.00320013
0.00113472
0.00106868
0.00137803
0.00192821
0.00169287
0.00698224
0.0233604
0.0589338
0.0793244
0.0984487
0.111886
0.136872
0.12791
0.136235
0.134135
0.0918476
0.0580434
0.0442314
0.0428543
0.0404863
0.0501402
0.0729584
0.117765
0.0476
0.00318062
0.00182016
0.00260036
0.00433037
0.00641223
0.00843003
0.012843
0.0197714
0.0350728
0.0596254
0.0860186
0.102352
0.121262
0.125973
0.112628
0.0938353
0.0675176
0.0519208
0.0401985
0.0410697
0.0438098
0.0441761
0.0498852
0.0551542
0.0653499
0.00941486
0.00846517
0.00750167
0.00682483
0.00725713
0.0085925
0.0120199
0.0116128
0.018025
0.0284321
0.0411682
0.0544592
0.0411063
0.0682699
0.0558508
0.0480641
0.0372056
0.026205
0.0225793
0.0241442
0.0309832
0.0339776
0.0342323
0.0332424
0.0375653
0.00956509
0.00812675
0.00707562
0.00639027
0.0058818
0.00549293
0.0055088
0.00560306
0.00565539
0.0056996
0.00545994
0.0103647
0.0156832
0.0179935
0.0181853
0.0190842
0.0207286
0.0218483
0.0219087
0.0218212
0.0229774
0.0240619
0.0252997
0.0267185
0.0315567
0.00319351
0.00123607
0.000702316
0.000479808
0.000363438
0.000268921
0.000249163
0.000666909
0.000942865
0.00277649
0.0127136
0.0191744
0.0231745
0.0276564
0.0305927
0.0329537
0.0356383
0.0344259
0.0309705
0.0273294
0.0254929
0.0260137
0.0272474
0.0286118
0.0338766
0.00318744
0.0012248
0.000686436
0.000463339
0.000349946
0.000282185
0.000222146
0.000202726
0.000215569
0.00214725
0.0134966
0.0222254
0.0269689
0.0301272
0.0380949
0.0494052
0.0505953
0.0429474
0.03317
0.0268049
0.024027
0.0225786
0.0237779
0.0252792
0.0308385
0.0031877
0.0012235
0.000688202
0.000459275
0.000351072
0.00028344
0.000228664
0.000200941
0.000220068
0.00142865
0.0125481
0.0176693
0.0210549
0.0254151
0.0459781
0.0583844
0.0646277
0.0603855
0.0492594
0.0389756
0.0303774
0.0275282
0.0270318
0.0283848
0.0336516
0.00318727
0.0012268
0.000686813
0.000462159
0.000349809
0.000287934
0.000228411
0.000198125
0.000334235
0.000702373
0.00522133
0.0101872
0.0137083
0.0471343
0.0880165
0.111262
0.112831
0.107346
0.0848902
0.0656863
0.0508084
0.0427791
0.0378628
0.0381493
0.0426858
0.00318732
0.00122747
0.000681347
0.000465478
0.000347968
0.000277322
0.00022153
0.000189054
0.00119249
0.00446182
0.00899777
0.0277781
0.123286
0.241753
0.253663
0.234052
0.202328
0.154836
0.13017
0.106276
0.081066
0.0632975
0.0494039
0.0469854
0.0528112
0.00318677
0.00122669
0.000681974
0.000466354
0.000350602
0.000259601
0.000210284
0.000169214
0.00437589
0.0163212
0.0663494
0.28167
0.494477
0.528183
0.435234
0.332641
0.254247
0.210813
0.177463
0.14543
0.11343
0.083153
0.0655727
0.0612112
0.0657907
0.00318696
0.00122276
0.000678848
0.000469268
0.000333033
0.000247716
0.000215052
0.000331515
0.0160832
0.0661454
0.299356
0.641595
0.81536
0.787226
0.614722
0.442216
0.319607
0.25395
0.208113
0.174361
0.143163
0.120837
0.0997897
0.088254
0.0907683
0.00318551
0.0012214
0.000676715
0.000474654
0.000314424
0.000238486
0.000263595
0.0038053
0.0617403
0.171028
0.46589
0.806321
0.954703
0.907455
0.689352
0.486676
0.357522
0.271561
0.214062
0.180773
0.155982
0.142809
0.123691
0.116388
0.11712
0.00318666
0.00121338
0.000681359
0.000457614
0.000295636
0.000251318
0.000513397
0.0248412
0.139341
0.243157
0.552777
0.885587
0.984427
0.845792
0.541116
0.36813
0.274512
0.211277
0.176056
0.157007
0.147602
0.143816
0.158283
0.178022
0.244275
0.00318548
0.00121098
0.000685131
0.0004495
0.000300178
0.000238821
0.00287427
0.0564763
0.161435
0.265339
0.570457
0.913961
0.932217
0.702876
0.421458
0.288851
0.22784
0.179005
0.155432
0.148413
0.14708
0.153956
0.219474
0.290733
0.418181
0.00318577
0.00121161
0.0006778
0.00044582
0.000289327
0.00028196
0.0134161
0.0859099
0.16421
0.285
0.590044
0.876131
0.865806
0.64715
0.377999
0.255781
0.2067
0.173539
0.159672
0.155139
0.161062
0.187159
0.296236
0.422458
0.587916
0.00318502
0.00120876
0.000680298
0.000439412
0.000296305
0.000325868
0.0285161
0.0931505
0.163613
0.278333
0.585266
0.838319
0.826828
0.600238
0.322751
0.229213
0.202442
0.188101
0.186297
0.203036
0.234955
0.289084
0.417659
0.614668
0.72739
0.00318719
0.00120301
0.000696929
0.000399998
0.000349114
0.00235867
0.0340816
0.102352
0.167789
0.264365
0.52492
0.793499
0.787339
0.603628
0.32171
0.219721
0.20109
0.209227
0.293331
0.406374
0.47174
0.522094
0.651237
0.772892
0.780481
0.00318685
0.00120512
0.000697352
0.00040123
0.000367631
0.00117699
0.0456247
0.0850681
0.140076
0.212866
0.44553
0.708324
0.736921
0.66317
0.375354
0.230003
0.203163
0.237415
0.373434
0.59624
0.719258
0.768021
0.799452
0.814492
0.748564
0.00318737
0.00121228
0.000697439
0.000407175
0.00036448
0.00289371
0.0334943
0.0629974
0.114222
0.217989
0.374113
0.619466
0.697628
0.676444
0.59241
0.401992
0.288536
0.330649
0.423296
0.624525
0.749419
0.781167
0.795971
0.78197
0.618306
0.00318845
0.0012163
0.000694283
0.000433678
0.000332559
0.00225136
0.0195464
0.0441753
0.0873224
0.187087
0.290069
0.523289
0.630267
0.643421
0.658084
0.612852
0.501246
0.462125
0.47243
0.562215
0.672465
0.707314
0.688149
0.587203
0.414635
0.003189
0.00121953
0.00069833
0.000438323
0.000349648
0.000149258
0.0158303
0.0308609
0.0731547
0.15166
0.251803
0.409473
0.539805
0.60357
0.665855
0.631806
0.589353
0.556584
0.509418
0.461633
0.435954
0.420203
0.37373
0.315609