/*--------------------------------*- C++ -*----------------------------------*\
  =========                 |
  \\      /  F ield         | OpenFOAM: The Open Source CFD Toolbox
   \\    /   O peration     | Website:  https://openfoam.org
    \\  /    A nd           | Version:  11
     \\/     M anipulation  |
\*---------------------------------------------------------------------------*/
FoamFile
{
    format      ascii;
    class       volScalarField;
    location    "50";
    object      nut;
}
// * * * * * * * * * * * * * * * * * * * * * * * * * * * * * * * * * * * * * //

dimensions      [0 2 -1 0 0 0 0];

internalField   nonuniform List<scalar> 
17196
(
0.105425
0.0854049
0.0658307
0.0533382
0.0457984
0.039662
0.032136
0.0255905
0.0176488
0.0132056
0.0178755
0.0940188
0.111001
0.114046
0.132534
0.149301
0.132052
0.129478
0.127702
0.146625
0.128953
0.200312
0.458729
0.2522
0.130916
0.226919
0.199283
0.155368
0.127885
0.109753
0.0953688
0.0738449
0.0583268
0.0390632
0.0257953
0.0203555
0.126772
0.128161
0.127589
0.132018
0.153027
0.156986
0.168111
0.200048
0.203904
0.254321
0.457688
0.37105
0.244483
0.321193
0.236372
0.200081
0.158391
0.129693
0.112558
0.0972358
0.0804144
0.0625419
0.0454275
0.0341673
0.0497474
0.124473
0.130262
0.132391
0.142398
0.161425
0.162322
0.166788
0.187859
0.217327
0.286854
0.322026
0.315269
0.275949
0.356922
0.237563
0.199715
0.157621
0.129899
0.112514
0.0973875
0.0805798
0.0642564
0.0495521
0.0368755
0.103432
0.137618
0.150187
0.155984
0.170366
0.187618
0.177524
0.175268
0.189239
0.225288
0.230976
0.237942
0.271092
0.278413
0.43174
0.236013
0.201274
0.158503
0.133793
0.114205
0.101263
0.0811085
0.0673664
0.0547344
0.0448562
0.129802
0.160843
0.182344
0.192543
0.220318
0.22502
0.197566
0.189168
0.199001
0.211631
0.200413
0.22723
0.275123
0.316945
0.543519
0.237962
0.20049
0.160507
0.133311
0.115508
0.100426
0.077289
0.0686303
0.0557775
0.0812814
0.153207
0.196689
0.230847
0.253224
0.297259
0.281334
0.218772
0.206313
0.214919
0.20187
0.198659
0.243201
0.31168
0.395111
0.723669
0.237149
0.200415
0.165031
0.136577
0.120908
0.102077
0.0817004
0.070712
0.0589981
0.119023
0.19066
0.23971
0.282092
0.336319
0.408063
0.367227
0.259834
0.236671
0.231795
0.212503
0.225755
0.296871
0.391457
0.534669
0.982129
0.236165
0.202883
0.165917
0.138264
0.122093
0.101474
0.0791086
0.0672419
0.0671494
0.156413
0.240198
0.292076
0.361513
0.497576
0.585587
0.492759
0.313762
0.282259
0.26907
0.253079
0.289947
0.393777
0.527141
0.755511
1.31718
0.233185
0.20602
0.169186
0.144021
0.127885
0.102389
0.0839634
0.0723293
0.0969419
0.189071
0.29453
0.373174
0.480712
0.765605
0.815168
0.647467
0.409433
0.385417
0.343616
0.342093
0.412353
0.552598
0.733257
1.07236
1.69981
0.234338
0.206795
0.172442
0.14777
0.128585
0.107859
0.0875014
0.0775989
0.120036
0.214674
0.366068
0.489665
0.689467
1.19299
1.10783
0.86931
0.577151
0.542258
0.486902
0.508587
0.617956
0.786344
1.01677
1.43203
2.00722
0.231716
0.209625
0.177503
0.152892
0.134414
0.112928
0.0906128
0.0821613
0.120581
0.225449
0.461643
0.646282
0.996705
1.49831
1.5535
1.23401
0.883734
0.799767
0.720602
0.773013
0.922345
1.08769
1.32327
1.7825
2.25061
0.230957
0.211208
0.180103
0.154791
0.134802
0.109317
0.0886191
0.0754415
0.14829
0.213505
0.593749
0.877953
1.46204
1.80437
2.40064
1.7517
1.4442
1.22293
1.1081
1.11857
1.24314
1.38158
1.67054
2.14711
2.47697
0.22851
0.211646
0.184354
0.16008
0.127423
0.100855
0.0825025
0.0828782
0.112599
0.146889
0.752348
1.1593
1.78008
2.16419
3.12448
2.48032
2.16863
1.79384
1.53992
1.44534
1.53501
1.71592
2.10072
2.53085
2.79877
0.227741
0.209559
0.185094
0.159202
0.113123
0.0948053
0.0785755
0.105165
0.100152
0.269839
0.87096
1.2777
1.83344
2.28417
3.38555
3.44632
3.09859
2.48452
1.83486
1.68262
1.79221
2.06986
2.62999
2.96097
3.29815
0.224639
0.206748
0.186292
0.150088
0.0978857
0.097867
0.0778748
0.0776227
0.0760104
0.354073
0.905998
1.28633
1.66565
2.91222
3.47551
4.74195
4.43956
2.94996
2.03388
1.94486
2.03788
2.38207
3.12334
3.47469
3.58974
0.222126
0.20309
0.184027
0.130728
0.0877338
0.110155
0.0857601
0.13293
0.133863
0.665909
0.891844
1.19118
2.10639
2.95782
3.51229
4.96882
5.38141
3.57775
2.42469
2.24096
2.21695
2.36191
3.19226
3.33554
3.28244
0.220482
0.200554
0.177598
0.106023
0.0870361
0.125529
0.127793
0.236306
0.490314
0.664874
0.904786
1.39034
1.98882
2.5362
3.23741
4.45486
5.932
4.41963
2.8628
2.24536
1.90453
2.17754
2.3897
2.81259
2.79084
0.218382
0.20027
0.164561
0.0913577
0.100032
0.152172
0.179037
0.404001
0.664173
0.656242
0.725396
1.11649
1.42502
2.96305
3.64959
4.67998
6.73333
5.03469
2.72075
1.81155
1.49134
1.56575
1.71013
2.08932
2.13742
0.217062
0.199633
0.14218
0.0903358
0.126566
0.228517
0.209973
0.48327
0.664242
0.739665
0.80758
1.08919
1.43963
2.37091
2.53511
2.79378
3.85886
3.9287
2.54416
1.66302
1.3592
1.25661
1.39069
1.61202
1.74667
0.216275
0.195053
0.123457
0.112536
0.155343
0.270203
0.328037
0.805465
0.609044
0.870194
0.845763
0.970085
1.19441
1.2339
1.68939
1.51686
1.85249
2.38348
2.14314
1.5182
1.25575
1.07189
1.13206
1.26675
1.46106
0.216872
0.186862
0.117371
0.10826
0.176631
0.189643
0.471341
0.536506
1.06039
0.756451
0.665518
0.592801
0.943066
1.01841
1.17431
0.961243
1.00744
0.958607
1.5181
1.20381
1.07491
0.914549
0.929929
1.00522
1.27041
0.219668
0.176942
0.115369
0.101616
0.255735
0.234492
0.379513
0.385101
0.72015
0.71904
0.731581
0.690979
0.656255
0.877933
1.03495
0.710145
0.562812
0.566866
0.872018
0.821808
0.826502
0.700471
0.661899
0.732062
0.938837
0.225331
0.158392
0.0906421
0.129938
0.401317
0.316465
0.318475
0.484417
0.461683
0.579389
0.673811
0.462488
0.765626
0.956832
1.23018
0.84375
0.552576
0.40846
0.66
0.593197
0.591937
0.492103
0.454233
0.476854
0.574862
0.209315
0.119953
0.0897828
0.105221
0.142391
0.284387
0.2736
0.386703
0.302472
0.36773
0.417074
0.395632
0.634504
0.834899
0.685331
0.499335
0.318117
0.214874
0.32839
0.55139
0.490452
0.393303
0.370701
0.357239
0.375968
0.0981254
0.123255
0.0537598
0.0634277
0.0757362
0.0956313
0.137127
0.167302
0.117781
0.0940255
0.129876
0.149708
0.184006
0.228599
0.188637
0.178458
0.133763
0.104573
0.138483
0.425474
0.354697
0.254729
0.197505
0.173779
0.128303
0.11766
0.0916114
0.0693461
0.0560992
0.049626
0.043656
0.0352904
0.0284734
0.022758
0.0211874
0.0303204
0.0731132
0.0835691
0.0875692
0.0909416
0.0848037
0.0812397
0.0802235
0.0809405
0.0927113
0.11686
0.159806
0.238263
0.255957
0.222747
0.00986998
0.0103974
0.0148228
0.0233837
0.0366546
0.0661014
0.12159
0.129182
0.091512
0.0696571
0.105542
0.203333
0.193734
0.234024
0.229542
0.227298
0.241671
0.249224
0.269628
0.285485
0.310608
0.409216
0.497002
0.457447
0.708033
0.00970197
0.0101599
0.0143659
0.0223115
0.0356275
0.0549703
0.0911451
0.157192
0.200316
0.166886
0.219748
0.358972
0.445346
0.542094
0.613503
0.622541
0.586843
0.487084
0.419305
0.380026
0.448805
0.512812
0.55843
0.666783
1.11541
0.00971071
0.0101212
0.0141035
0.0216512
0.0338933
0.0514169
0.081976
0.139847
0.18876
0.185157
0.301318
0.51934
0.693549
0.721315
0.71787
0.707298
0.694906
0.71343
0.478737
0.432322
0.498361
0.535115
0.625492
0.896393
1.36498
0.00971247
0.0100771
0.0139504
0.0214533
0.032979
0.0474469
0.0740626
0.121453
0.162761
0.20752
0.414336
0.708251
0.619886
0.736333
0.875282
0.942854
0.836726
0.831369
0.519229
0.462699
0.505315
0.606758
0.781159
1.20582
1.12793
0.00971377
0.010066
0.0137805
0.021113
0.0325947
0.0436515
0.0713759
0.102416
0.128563
0.261826
0.528096
0.645578
0.716087
0.995987
1.1768
1.47582
1.23824
0.983909
0.597763
0.565861
0.607878
0.789502
1.21456
1.60731
0.902048
0.0096905
0.0101872
0.0130771
0.0223901
0.0305674
0.0418192
0.0658911
0.0849294
0.126277
0.370339
0.623092
0.625525
1.00673
1.26208
1.80569
2.27053
1.76259
1.15483
0.776614
0.802472
0.950868
1.32277
1.87125
2.21573
1.07403
0.00966425
0.0102771
0.0127897
0.0219474
0.0306509
0.0406251
0.0529833
0.0642281
0.219571
0.435837
0.624985
0.792726
1.4581
1.9054
3.04811
3.26735
2.32887
1.49243
1.25999
1.46468
1.48898
1.97213
2.57549
2.87974
0.959469
0.00962659
0.0103818
0.0128774
0.0231965
0.0347869
0.0435284
0.0460945
0.0738754
0.325163
0.520913
0.638681
1.1661
2.13429
2.90956
4.80452
4.52455
3.0058
2.18008
2.09952
2.06507
2.20483
3.13917
3.67468
3.62131
2.74759
0.00961383
0.0102442
0.0149513
0.0242747
0.0309409
0.0374449
0.0411195
0.0948368
0.274173
0.483615
0.829758
1.71817
3.13019
4.74779
6.73884
5.869
3.82975
3.10799
2.7922
2.98836
3.47893
4.14818
4.34575
3.9986
2.69665
0.00956655
0.0106352
0.0151266
0.0218525
0.0350391
0.0458848
0.0403867
0.0674364
0.307133
0.622514
1.09346
2.70019
4.86824
7.23826
8.60228
7.11166
5.03846
3.86864
3.87567
3.95552
4.63001
4.81946
4.92497
4.1331
4.59087
0.00955369
0.010762
0.0165405
0.0236253
0.0434002
0.0516529
0.0466575
0.0630725
0.360945
0.786447
1.64545
3.87961
6.4809
9.11244
10.2858
8.41958
6.33817
4.81595
4.29075
4.52553
5.42051
5.03127
4.67869
4.26977
4.96693
0.00950933
0.0114275
0.0173814
0.0377898
0.0523876
0.0440342
0.0452233
0.141695
0.544019
0.915106
2.78599
5.43113
7.27072
9.8131
11.5011
9.89236
7.59443
5.32444
4.81159
4.47242
4.98345
4.8496
4.81071
4.91104
6.17967
0.00949312
0.0119453
0.0203758
0.0475817
0.0612712
0.0536959
0.0700279
0.215856
0.624534
1.04479
3.52728
6.08394
7.86313
10.123
11.9786
10.703
7.97574
5.45276
4.27896
4.35891
5.17095
5.61825
5.98442
6.56816
8.47725
0.00951354
0.0121462
0.0283837
0.0623168
0.068602
0.0684405
0.100715
0.348064
0.652081
1.15459
3.39365
5.87236
7.92985
10.2208
11.8602
10.4186
8.10609
5.49736
4.31085
4.66636
5.76443
6.74983
7.56494
8.92121
11.7031
0.00950572
0.0133187
0.0309363
0.0583262
0.0834873
0.100924
0.157207
0.550212
0.781136
1.54754
3.50271
5.34995
7.22944
9.54591
12.0489
10.503
8.24424
6.19415
4.72737
4.90997
5.86323
7.26623
8.7813
10.4331
11.9467
0.00952985
0.0142947
0.0353326
0.0621184
0.109427
0.144811
0.220237
0.703293
0.766265
1.64767
2.89904
5.28344
6.61174
8.8506
11.6426
11.9831
8.92444
7.51795
5.67756
4.93384
5.13946
6.36682
8.05229
9.62904
10.8101
0.00955281
0.0151743
0.039742
0.0777337
0.139113
0.204097
0.335756
0.972361
0.850087
1.88143
2.37116
4.13004
5.18051
7.33018
9.47607
11.2338
9.10865
8.09094
7.00267
5.69622
5.18946
5.4631
6.23139
7.07597
8.35753
0.00946366
0.0178452
0.0416137
0.0895474
0.183
0.230668
0.433411
0.795626
1.17463
1.70651
2.14885
2.57167
3.92972
5.38056
6.02655
7.2068
7.56697
7.42435
7.86383
6.80597
5.92239
5.1876
5.08704
5.64865
6.46193
0.00952681
0.0180392
0.0436913
0.106501
0.272873
0.234334
0.509097
0.853686
0.934976
1.13255
1.5386
2.18605
2.975
3.26988
3.97111
3.83653
5.86161
5.24683
6.76225
6.78619
5.83194
4.39443
4.63555
4.92905
5.44641
0.00961185
0.0179946
0.0453044
0.118303
0.352393
0.253749
0.831745
0.847882
1.04756
1.14701
1.47822
1.91495
2.21337
2.47748
2.30215
2.86938
3.31193
2.38636
3.90767
5.09359
4.84935
3.99017
4.07912
4.18604
3.17049
0.00966739
0.0183292
0.0491559
0.16068
0.457411
0.402798
0.654312
0.961924
1.43958
1.6622
1.63131
1.93418
1.76761
1.96637
2.27599
2.57353
2.64499
1.15476
1.71724
3.47989
3.02579
2.56879
2.88249
2.94105
2.56691
0.00937557
0.0211191
0.0714987
0.341216
0.551768
0.572505
0.591574
0.699692
1.38816
1.5184
1.67323
1.77839
1.6621
1.81599
1.92904
2.04357
1.9947
1.13738
1.09754
1.76354
2.32952
1.92923
1.82928
2.03281
1.70597
0.010767
0.0316996
0.231147
0.210461
0.233545
0.358162
0.346522
0.566868
0.778339
1.11004
1.17898
1.2004
1.31013
1.5183
1.71138
1.89924
1.20675
0.5561
0.491497
0.710137
0.984745
0.966291
1.07757
1.19622
1.034
0.111114
0.0855913
0.0655222
0.0653815
0.0539935
0.100916
0.173537
0.237623
0.164778
0.235176
0.299116
0.345388
0.429549
0.620871
0.41757
0.267874
0.230494
0.153888
0.102734
0.215432
0.292264
0.236621
0.203693
0.1748
0.175211
0.117585
0.0948621
0.0724027
0.0587644
0.0506653
0.0450613
0.0394723
0.035724
0.0300689
0.0271918
0.0266442
0.0633065
0.0682929
0.0721727
0.0727925
0.071285
0.0726837
0.0755849
0.0771274
0.0831701
0.0967285
0.11796
0.148828
0.179986
0.211927
0.00952766
0.008858
0.0086682
0.00837362
0.00916394
0.0121368
0.0321371
0.0734242
0.0804996
0.0861491
0.133688
0.264351
0.270042
0.299087
0.29794
0.305692
0.317749
0.337171
0.366427
0.386242
0.395268
0.430345
0.509009
0.516431
0.846858
0.00940274
0.00868583
0.00836171
0.00825881
0.00887471
0.0116541
0.0158948
0.0309672
0.0563399
0.221563
0.267742
0.411934
0.50817
0.538106
0.610982
0.716832
0.720678
0.668744
0.689789
0.644174
0.558176
0.592117
0.658955
0.747952
1.25371
0.0094031
0.00870914
0.00828099
0.00831673
0.00880205
0.011271
0.0150644
0.0266463
0.0504968
0.340379
0.543061
0.752035
0.671598
0.689952
0.694239
0.873816
0.804583
0.686384
0.632795
0.695569
0.804247
0.803339
0.972443
1.1434
1.39781
0.0093998
0.00873473
0.00826278
0.00838064
0.00876424
0.010917
0.014478
0.0205306
0.0512595
0.342809
0.6329
0.642139
0.617388
0.781641
0.934225
1.42719
1.29497
0.996652
0.759397
0.808668
0.783417
0.86921
0.968001
1.24309
1.56268
0.00940237
0.00873678
0.00824598
0.00837829
0.00866231
0.0102593
0.0135196
0.0173448
0.0570547
0.39382
0.619289
0.612647
0.782295
1.3414
1.60901
2.25814
2.12795
1.45851
1.03359
0.918364
0.915294
0.974005
1.12849
1.55491
1.97062
0.00939844
0.00876156
0.00823658
0.00849488
0.00831763
0.0101196
0.0128396
0.0171671
0.10217
0.419179
0.563715
0.707374
1.3001
2.52991
2.66221
3.54044
3.1795
2.08105
1.3752
1.25291
1.20063
1.32166
1.51114
2.11996
3.01285
0.00940167
0.00875672
0.00826011
0.00842134
0.00845411
0.00895589
0.0116184
0.0234938
0.163893
0.372102
0.589413
1.29326
2.91735
3.95052
4.61706
5.03323
4.04646
2.47152
1.83448
1.85501
1.85013
1.98937
2.45087
3.19521
3.60973
0.00939784
0.00876931
0.00828856
0.00854381
0.00827683
0.00994734
0.0119014
0.0485078
0.238476
0.387677
1.13692
2.74026
4.6729
6.31758
7.44342
6.52475
4.42242
3.17542
2.83822
2.84747
2.83817
3.22997
3.36919
3.7539
4.44924
0.00940308
0.00874509
0.00832747
0.00872941
0.00817789
0.0104288
0.015951
0.0982924
0.341864
0.650694
2.09128
3.99661
6.86923
9.94108
8.81661
7.41204
5.12438
4.08051
3.68864
3.49253
3.47138
3.52545
3.57141
3.85502
4.36711
0.0094003
0.00874003
0.00847244
0.00874957
0.00866093
0.0109478
0.0270912
0.150226
0.503058
1.26482
3.09953
6.11006
10.3032
11.0423
10.0433
8.41423
5.89817
4.44398
3.75304
3.5655
3.51402
3.52376
3.63681
3.9845
4.74004
0.00940623
0.00870193
0.00871784
0.00859453
0.0104361
0.0131773
0.0489195
0.146334
0.750816
1.67671
4.48161
7.59681
11.0023
11.5453
11.3655
9.3515
6.06124
4.30013
3.53453
3.59009
3.69685
3.64703
4.18131
4.78678
5.69502
0.00940203
0.00873564
0.00877392
0.00935267
0.0118109
0.0156699
0.0307785
0.261977
0.98845
1.77631
4.68118
7.96827
11.0157
11.914
11.351
10.0396
5.66006
3.73688
3.63309
4.24324
4.93381
4.93116
5.45415
5.83343
7.657
0.00940546
0.00872729
0.00897357
0.0101007
0.0141733
0.0187211
0.0283195
0.336955
0.986269
1.76763
4.40324
8.95253
10.7348
11.8476
10.7586
9.63345
5.24574
3.71623
4.01838
5.61819
7.41682
7.82503
7.9229
8.01804
10.3201
0.00940234
0.00873001
0.00933477
0.0112514
0.0168637
0.0236051
0.0318453
0.453509
1.08802
2.18787
5.81954
7.96488
10.7307
11.5595
10.4415
9.33802
5.78893
3.99513
4.70353
6.62545
9.37501
10.4817
10.8788
11.0918
12.2434
0.00939691
0.00885673
0.00931015
0.0143269
0.0181299
0.0289591
0.0625486
0.523168
1.28144
2.91526
4.39635
7.58559
10.4847
11.1524
11.0316
9.6963
8.3837
5.11403
5.4558
6.92616
9.30212
11.1971
11.7654
12.0622
12.9137
0.00938902
0.00894516
0.00946494
0.0164958
0.0234769
0.0374065
0.108956
0.541358
1.33642
2.29886
4.2029
6.9984
9.37272
10.595
11.4632
10.9992
11.1391
8.29908
6.67835
6.7504
8.02777
9.54357
10.6341
10.7074
11.4367
0.00940009
0.00878144
0.0111227
0.0183331
0.0295545
0.0465279
0.0869778
0.64538
1.40927
2.02177
3.67031
5.76737
7.88787
9.29381
10.7564
11.5737
10.1817
10.2398
7.97317
7.28046
6.64229
7.14972
7.17877
7.77529
8.49789
0.00938362
0.00900613
0.0114793
0.0171623
0.0424734
0.0554002
0.145973
0.676755
1.26078
1.85268
2.90074
4.25057
6.51951
7.63502
8.92367
10.0646
9.11875
8.83792
9.462
8.0172
6.4542
6.0857
5.86477
6.17974
6.00277
0.00939716
0.00890831
0.0119594
0.0186739
0.0594236
0.065743
0.145586
0.902104
1.36847
1.61407
1.96684
3.10353
4.11643
5.46591
6.71097
7.11817
7.18624
8.63599
8.92085
8.16003
6.77805
5.58426
5.66302
5.91232
3.59881
0.00942547
0.0085304
0.0130169
0.0256225
0.0808583
0.0804048
0.237353
1.09842
1.56919
1.62285
1.69118
2.28888
2.88851
3.61471
3.73813
4.98131
4.18864
4.00387
4.29201
5.41152
6.23176
6.08055
5.56594
4.73282
0.0332376
0.00943767
0.00836105
0.01435
0.0346919
0.106908
0.14609
0.46736
1.03159
1.52884
1.55837
1.85484
2.12817
1.95995
2.1059
2.12253
3.06428
2.37093
2.2634
1.83384
2.2591
3.11794
4.02524
4.23549
1.82468
0.0163967
0.00934625
0.00953996
0.0219525
0.0644173
0.109067
0.12269
0.43071
0.566832
1.39901
1.8013
1.71135
1.91392
1.81987
1.5536
1.64231
1.93652
1.65369
1.67966
1.30306
1.4424
1.66848
1.84381
1.89101
1.60362
1.01963
0.0094589
0.0190914
0.0793434
0.239568
0.24306
0.303027
0.257381
0.428727
0.913109
1.34983
1.28854
1.30708
1.07674
1.10658
1.18302
1.55672
1.48098
0.939914
0.570715
0.672379
1.03499
1.30602
1.40867
1.18779
0.814942
0.114413
0.0890385
0.0572977
0.0594288
0.0588736
0.0661411
0.0743661
0.188305
0.240166
0.282599
0.339743
0.41551
0.461232
0.457406
0.466994
0.262063
0.21409
0.171885
0.117584
0.135891
0.186946
0.189841
0.190563
0.176064
0.223037
0.118518
0.095122
0.0734184
0.0596022
0.0510221
0.0453652
0.0411385
0.0381498
0.0349954
0.029272
0.0278618
0.0468536
0.0611711
0.0644248
0.0622417
0.0635576
0.0658125
0.0683905
0.0708068
0.0754016
0.0822991
0.0921689
0.109292
0.131682
0.172536
0.00946959
0.00881587
0.00850753
0.00817205
0.00753027
0.00729268
0.0170731
0.0442168
0.0551048
0.091702
0.130958
0.256333
0.31615
0.315037
0.334219
0.349546
0.386794
0.418158
0.464202
0.509481
0.529084
0.528861
0.59877
0.593655
1.01707
0.00940162
0.00870015
0.00824631
0.00779884
0.007753
0.0072531
0.00782887
0.0104791
0.0157887
0.171066
0.341055
0.407998
0.435213
0.464861
0.545264
0.754882
0.787363
0.713055
0.656037
0.614248
0.671853
0.692126
0.781752
0.85851
1.18676
0.00940273
0.00870685
0.00824192
0.00777887
0.00780393
0.00729271
0.0075756
0.00980502
0.0169147
0.225647
0.504745
0.635025
0.693639
0.723197
0.877192
0.949497
1.14998
1.06781
0.875971
0.724186
0.685349
0.698984
0.793678
0.89696
1.16284
0.00940104
0.00871636
0.00827022
0.0077718
0.00788358
0.00728534
0.00753335
0.00952282
0.0135297
0.21175
0.463582
0.542364
0.540432
0.766517
1.42229
1.74766
2.08681
1.88801
1.46223
1.12675
0.912075
0.913217
0.934122
0.994136
1.25705
0.00940252
0.00872355
0.00823082
0.00780455
0.00783348
0.00720913
0.00736804
0.00905979
0.0279524
0.156703
0.368083
0.476187
0.761706
2.28519
3.39379
3.55011
3.10129
2.61896
2.03506
1.58726
1.24955
1.09118
1.12451
1.19791
1.59802
0.00940028
0.0087266
0.00825221
0.00782496
0.00789075
0.00710826
0.00743578
0.0109529
0.0992008
0.254159
0.479238
1.29679
3.0552
5.83349
5.47149
4.62768
3.67822
3.01269
2.46739
2.07192
1.69886
1.4449
1.5767
1.69329
2.34233
0.00940281
0.0087199
0.00822615
0.00786311
0.00782494
0.0066087
0.00806204
0.0304948
0.28107
0.725811
2.1056
3.76373
7.85085
9.23551
8.22653
5.6453
4.16016
3.46935
2.95444
2.83608
2.53328
2.36456
2.43512
2.52988
3.2679
0.00939906
0.00873185
0.0081834
0.00811495
0.00734907
0.00665591
0.0100957
0.0851661
0.707128
1.87429
4.59918
6.90596
10.8983
11.1096
9.11325
6.35852
4.60729
3.78422
3.36845
3.18899
2.94315
2.93731
2.98237
3.23822
3.53574
0.00940289
0.0087136
0.00821574
0.00807925
0.00696661
0.00679923
0.0159462
0.24354
1.59078
3.15637
5.88831
9.70895
12.5277
12.2399
9.8681
6.8096
4.87211
3.8193
3.33634
3.02831
2.96283
2.74359
3.04028
3.34649
3.55916
0.00940046
0.00870258
0.00827441
0.00801213
0.00693984
0.00709254
0.0418892
0.523454
2.27243
3.22823
7.18359
11.5146
12.0872
11.739
8.63818
5.82395
3.83782
3.06673
2.78115
2.62114
2.59512
2.67787
3.12061
3.69789
4.08006
0.00940513
0.00867775
0.00833415
0.00787001
0.00711739
0.00723664
0.0658749
0.95793
2.17466
3.16612
7.30448
11.939
12.471
11.9492
8.90647
5.00822
3.57424
2.99591
2.70522
2.65649
2.75797
2.88976
3.66748
4.43611
6.05499
0.00940274
0.00867241
0.00837409
0.00785353
0.00729871
0.0077034
0.128409
1.19818
2.0861
3.25075
7.35165
12.1095
12.031
11.2053
9.01858
4.79607
3.37579
3.10652
3.05176
3.41235
3.67358
4.11116
4.8687
6.1158
9.72815
0.00940583
0.00867208
0.00839925
0.00776933
0.00782539
0.00867737
0.155603
1.45618
2.43757
3.89556
9.56839
11.6397
12.1709
11.6057
9.15032
4.48614
3.34445
3.26527
3.6931
5.68687
6.7265
6.87662
7.23938
9.57316
13.8442
0.0094067
0.00864674
0.00855965
0.00760243
0.00852541
0.01008
0.344886
1.4994
2.26337
4.99596
8.65817
10.838
11.5224
11.3788
9.95479
5.22636
3.30929
3.50986
4.48902
7.7718
10.5539
11.594
12.5077
14.5695
16.1117
0.00940705
0.00867309
0.00852029
0.00788586
0.00927141
0.00541556
0.386442
1.34252
2.18415
4.25144
7.24656
9.70382
11.2738
10.8569
10.7619
9.07908
5.11021
4.48176
5.14536
7.92416
11.7203
13.4624
14.5281
15.3601
14.7719
0.00940243
0.00869596
0.00854136
0.00808974
0.010927
0.0117053
0.40621
0.801304
1.53416
3.07862
5.27738
8.14152
9.90622
10.0743
10.6554
11.7099
9.08747
6.72255
6.77309
8.26339
10.9207
12.1332
12.6333
12.2419
11.6242
0.00940492
0.00868456
0.00856489
0.00877825
0.0121519
0.015354
0.234434
0.64497
1.36287
2.53509
4.88667
7.00813
8.22433
9.1244
10.29
11.2596
11.3918
9.35338
8.83
7.80815
7.54386
7.89432
8.10259
7.65267
7.63128
0.00940204
0.00870937
0.00857634
0.00869166
0.013891
0.0181168
0.152947
0.681974
1.13036
2.17696
3.847
5.80232
6.94626
8.16494
9.54961
10.4938
9.4962
9.63824
9.17285
7.03074
6.29408
6.1839
6.04545
5.8691
5.18254
0.00939788
0.00881015
0.00826013
0.00926961
0.0162863
0.0237702
0.100147
0.754514
1.13076
1.87122
2.89257
4.1209
5.0935
5.75673
7.0632
8.31778
8.70407
8.22666
8.38911
7.2475
5.62874
5.25794
5.65593
6.01755
2.145
0.00939652
0.00884893
0.00805593
0.0108562
0.0230712
0.0331049
0.0768812
0.750304
1.43341
1.89779
2.13512
3.12492
3.82522
4.22365
5.0867
6.83724
6.29658
6.61322
5.32137
4.40803
3.98568
4.63668
5.36863
5.16022
0.0545853
0.00941221
0.00861934
0.00863948
0.0143881
0.0301573
0.0573706
0.164684
0.716789
1.6139
1.57344
1.88871
2.35868
2.6684
2.77971
3.31189
4.19752
3.55826
2.4453
2.3401
1.55187
1.68969
2.20808
3.00055
2.74651
0.0158093
0.00944481
0.00804924
0.0126622
0.0232287
0.0410848
0.0429643
0.188151
0.523917
1.05973
1.66498
1.80906
1.9296
2.00408
1.74577
1.83029
2.03428
1.96454
1.35993
1.13657
1.09958
0.993064
1.13462
1.32801
1.47291
0.337048
0.00942735
0.0129825
0.0352546
0.0883071
0.157992
0.227219
0.264075
0.364029
0.596773
0.961576
1.38785
1.36394
1.34891
1.3809
1.42292
1.51099
1.35814
1.12717
0.673628
0.655212
0.742896
0.891398
1.08505
0.850285
0.662864
0.112519
0.0984709
0.0613907
0.0511556
0.0543163
0.0649373
0.102686
0.110643
0.201453
0.310987
0.379956
0.523843
0.431411
0.770239
0.605157
0.431968
0.26493
0.148345
0.10887
0.108039
0.132973
0.14612
0.153118
0.157393
0.210575
0.117545
0.0957592
0.0745606
0.0604259
0.0515663
0.0449027
0.0413187
0.0399589
0.0409587
0.0362636
0.0333326
0.0491552
0.0609806
0.063349
0.06144
0.0642075
0.0707114
0.0760217
0.0773745
0.0777365
0.0834109
0.0911374
0.10232
0.1148
0.138126
0.00942208
0.00880551
0.00844245
0.00816997
0.00794134
0.00706882
0.00757956
0.024361
0.037271
0.101421
0.141456
0.222252
0.304983
0.33716
0.36706
0.427972
0.497123
0.575762
0.638142
0.629548
0.614971
0.648994
0.694148
0.714524
0.893198
0.00940198
0.00872449
0.00824503
0.00787813
0.00761412
0.00747242
0.00667478
0.0068405
0.00833759
0.0801513
0.373719
0.465087
0.491137
0.504678
0.623713
0.833007
1.00783
0.920278
0.729318
0.61033
0.588911
0.575345
0.627215
0.693723
0.855191
0.00940286
0.00871646
0.0082628
0.00781192
0.00763537
0.00755617
0.00674194
0.00693719
0.00872759
0.0545237
0.380536
0.482341
0.581209
0.691914
1.03662
1.13854
1.3037
1.21759
1.00275
0.777685
0.65945
0.634606
0.683868
0.738962
0.862705
0.00940103
0.00873177
0.00823727
0.00785557
0.00762314
0.00766742
0.00674086
0.00689173
0.0133313
0.0272174
0.167336
0.305302
0.40352
1.12207
1.67579
2.09186
2.02761
1.92289
1.47988
1.24651
1.05827
1.03766
0.930245
0.913964
1.04068
0.009401
0.0087375
0.008179
0.00792605
0.00760987
0.00739071
0.00661586
0.00663908
0.0465666
0.176061
0.303905
0.745263
2.29103
3.9371
3.92565
3.58453
3.20133
2.39869
2.16477
2.00112
1.65182
1.47864
1.17554
1.11158
1.25653
0.00939997
0.00873112
0.00819133
0.00793015
0.0077111
0.00691884
0.00631949
0.00615709
0.165137
0.554759
1.62792
4.88523
8.1191
8.00596
6.72302
4.8679
3.96169
3.22724
2.89903
2.67108
2.25121
1.79946
1.55119
1.41776
1.50783
0.00940131
0.00871957
0.00816374
0.00801547
0.00740777
0.00648475
0.00684474
0.0122121
0.546352
1.70729
6.00616
10.9948
13.2616
11.9265
9.39103
6.51223
4.99753
3.88376
3.32771
3.04915
2.82082
2.62551
2.16551
1.947
2.01361
0.00939847
0.0087211
0.00813222
0.00815845
0.00688181
0.00642738
0.00888817
0.12902
1.75892
4.16881
9.27083
12.9978
14.8527
13.4063
10.7167
7.76155
5.4969
4.15235
3.42535
3.14635
2.91172
3.04675
2.55576
2.3723
2.38727
0.00940296
0.00867266
0.00822912
0.00787732
0.00652063
0.00707037
0.0174261
0.815464
3.87151
6.06296
10.8081
14.1763
15.0431
12.6072
8.56976
5.93669
4.3711
3.34337
2.8932
2.66562
2.79594
2.83991
3.07359
3.5389
4.99993
0.00940066
0.00865892
0.00829039
0.00769533
0.00668047
0.00706383
0.0957814
1.81567
4.5087
6.69521
11.452
14.2355
13.7129
10.4708
6.39515
4.27256
3.37765
2.71985
2.44385
2.39116
2.54551
2.767
4.11945
5.6184
8.57966
0.00940187
0.00866959
0.0082048
0.00770922
0.00654039
0.0082338
0.458054
2.74621
4.65572
7.42267
11.7242
13.2419
12.7253
9.37689
5.53668
3.75111
3.01914
2.56065
2.40604
2.41021
2.63013
3.21214
5.5736
8.31465
12.7397
0.0094005
0.00865019
0.0082348
0.00763514
0.00670355
0.00980701
0.906933
2.6977
4.48313
6.91238
12.206
13.0124
12.4288
8.73099
4.64377
3.37814
2.91798
2.68996
2.70171
3.07186
3.83455
5.05224
7.98685
12.0693
16.0041
0.00940612
0.00859994
0.00844801
0.00695631
0.00791604
0.0712591
1.02323
2.94688
4.53352
6.74538
11.4959
12.4931
11.7564
8.76722
4.73909
3.27048
2.88946
2.92776
4.21421
6.22895
7.79904
9.08905
12.2467
15.1166
17.1622
0.0094043
0.00860473
0.00845329
0.00696037
0.00829323
0.0349906
1.41455
2.54096
3.74422
5.12542
9.63861
11.5363
11.3699
9.7475
5.41993
3.37712
2.93269
3.36799
5.42244
9.57506
12.0448
13.8263
14.7668
15.6041
16.195
0.00940181
0.00863198
0.00843216
0.00703977
0.0081986
0.0863261
1.05238
1.80044
3.07667
5.27507
8.01951
10.1269
11.1559
9.76459
8.36847
5.96402
4.00581
4.79274
6.33267
10.3489
12.3679
13.4927
14.262
15.2825
13.7932
0.00940265
0.00863532
0.00841797
0.00735659
0.00768624
0.0671611
0.563875
1.15182
2.34915
4.46185
6.06015
8.47542
10.0877
9.72606
9.26714
9.10909
7.55641
7.13194
7.64072
9.47013
11.6386
12.4332
12.1258
11.136
9.65287
0.00940163
0.00865077
0.00842676
0.00742656
0.00801128
0.00450378
0.432117
0.802846
1.84156
3.38312
4.97543
7.05378
8.32881
8.8451
9.44545
9.35505
8.31439
8.8797
8.59659
7.77591
7.13173
7.44743
6.87367
6.53298
6.7607
0.0094006
0.00868467
0.00846667
0.00759074
0.00854208
0.00758854
0.261361
0.598962
1.29562
2.72027
4.50986
6.43295
7.46803
8.13603
8.86142
8.99433
8.10216
7.12662
6.60958
6.00406
5.56172
5.43418
5.43299
5.30607
5.89987
0.00939831
0.00874303
0.00842439
0.00738282
0.00972444
0.0127608
0.149179
0.403192
1.13472
1.99302
3.52913
5.14555
5.88805
6.26916
7.04599
8.31027
7.07417
6.66615
5.92517
5.25631
5.02884
4.76018
4.89838
4.92889
5.36108
0.00939637
0.00882003
0.00816815
0.0078364
0.0127979
0.0183561
0.0415364
0.398945
1.41723
2.0094
2.70761
4.13404
4.87874
5.64745
5.36379
7.53993
6.2716
4.9219
3.86206
2.72867
2.17812
2.55864
2.63225
3.02282
3.45613
0.00939034
0.00892833
0.00775968
0.00959001
0.0212227
0.0422335
0.0690365
0.45572
1.18194
1.88705
2.23345
3.01795
3.84985
4.49984
4.14703
5.65335
4.30711
3.01471
1.96848
1.25252
1.31252
1.11707
1.48108
2.05787
1.72203
0.00941468
0.00858873
0.00906229
0.016698
0.0466748
0.0537902
0.0956503
0.359841
0.845966
1.67187
2.3007
2.61563
2.6299
2.80389
2.14688
2.24025
1.98333
1.70484
1.04066
0.885208
0.883924
0.927142
1.04604
1.08471
0.924408
0.00950837
0.0106017
0.0256905
0.0629928
0.182439
0.268016
0.307614
0.349997
0.518549
0.895961
1.17432
1.27273
1.41173
1.48766
1.5412
1.27131
1.18042
0.94717
0.724833
0.601807
0.602743
0.659896
0.745092
0.680856
0.649355
0.114461
0.0997159
0.0708038
0.0538312
0.0640699
0.0651596
0.0841227
0.09917
0.11676
0.232315
0.359015
0.577571
0.74842
0.87706
0.720329
0.48701
0.293717
0.175509
0.112634
0.101391
0.11384
0.127198
0.128827
0.134326
0.181841
0.116804
0.0964105
0.0756362
0.0619831
0.0524273
0.0454578
0.0416663
0.0396386
0.0404737
0.0407543
0.0387312
0.0504055
0.0657989
0.066539
0.0658136
0.0683816
0.0742587
0.0833182
0.0923351
0.0958554
0.0983762
0.101405
0.109577
0.116274
0.123418
0.00942034
0.00883553
0.00842755
0.00822697
0.00815632
0.0076711
0.00700819
0.0108
0.0386622
0.0561695
0.16884
0.190677
0.257049
0.322102
0.348898
0.396871
0.483311
0.572818
0.669992
0.675577
0.727531
0.643199
0.594345
0.633921
0.751806
0.00940282
0.00874359
0.00825255
0.0079577
0.0076342
0.00764817
0.00720607
0.00631226
0.00714855
0.0115202
0.24386
0.472819
0.538856
0.553979
0.616551
0.833078
0.970303
1.11706
1.00233
0.774837
0.609453
0.566647
0.580376
0.632178
0.731945
0.00940296
0.00873238
0.0082829
0.00790328
0.00762922
0.00765558
0.00734856
0.00644367
0.00846331
0.0144859
0.109392
0.331347
0.471533
0.650391
0.988634
1.20343
1.33127
1.32596
1.17793
0.928344
0.71774
0.647543
0.626224
0.664785
0.768999
0.00940292
0.00873258
0.00828682
0.00785922
0.00779869
0.00749975
0.0068153
0.00622244
0.0119308
0.067444
0.132169
0.376204
0.950832
2.44854
2.28746
2.09778
2.29661
1.93172
1.62716
1.27572
0.957388
0.961887
0.867388
0.890234
0.977765
0.00940175
0.00873482
0.00823164
0.00793998
0.00771059
0.00710247
0.00624207
0.00820558
0.0371907
0.231305
1.34495
3.4067
4.88804
6.05352
5.98773
4.56438
3.46886
2.54623
1.93002
1.66053
1.44658
1.40592
1.06938
1.12175
1.16626
0.00940206
0.00871936
0.00825673
0.00797589
0.00747618
0.00639162
0.00792584
0.032809
0.215418
1.16352
6.00236
8.36257
10.1406
11.0014
8.57089
6.00971
4.20631
2.84148
2.35337
2.04491
1.9079
1.89951
1.65464
1.78987
1.87739
0.0094011
0.00871954
0.00819606
0.00800278
0.00690635
0.00654884
0.0184012
0.243855
0.950297
4.78018
10.4055