/*--------------------------------*- C++ -*----------------------------------*\
  =========                 |
  \\      /  F ield         | OpenFOAM: The Open Source CFD Toolbox
   \\    /   O peration     | Website:  https://openfoam.org
    \\  /    A nd           | Version:  11
     \\/     M anipulation  |
\*---------------------------------------------------------------------------*/
FoamFile
{
    format      ascii;
    class       volScalarField;
    location    "50";
    object      omega;
}
// * * * * * * * * * * * * * * * * * * * * * * * * * * * * * * * * * * * * * //

dimensions      [0 0 -1 0 0 0 0];

internalField   nonuniform List<scalar> 
17196
(
0.0216986
0.019557
0.0179304
0.0165669
0.0150904
0.0136987
0.0117523
0.00996377
0.0086513
0.00744317
0.0139345
0.0217649
0.0223461
0.0227074
0.0229029
0.0233441
0.0231806
0.0229241
0.0226869
0.0216831
0.0212059
0.0177767
0.0168151
0.0183622
0.03505
0.0110664
0.0103152
0.0096847
0.00912664
0.00848805
0.00791327
0.00695049
0.00615896
0.00524516
0.00485235
0.00815528
0.0127626
0.013021
0.0131024
0.0132129
0.0134404
0.0134063
0.0134028
0.0133034
0.0131897
0.0120763
0.0121057
0.0144642
0.0165068
0.0195355
0.0108336
0.0103253
0.00974421
0.00913593
0.00856984
0.00800625
0.0072937
0.00659954
0.00604247
0.00532109
0.011928
0.0133469
0.0137034
0.0138412
0.0139667
0.0144183
0.0142393
0.013953
0.0138186
0.0136588
0.0138018
0.01466
0.0164955
0.0176007
0.0205772
0.0108024
0.0103176
0.00972262
0.00914045
0.00856877
0.00801363
0.00737383
0.00680526
0.00624408
0.00711189
0.0133287
0.0143411
0.0149698
0.0151103
0.015219
0.0155589
0.0149122
0.0144486
0.0142081
0.014118
0.0145092
0.0156414
0.0176277
0.0189163
0.0219895
0.0108509
0.0103622
0.0097557
0.00929095
0.00866691
0.0082483
0.00759416
0.00724524
0.00695588
0.0107033
0.0142541
0.0154414
0.0164592
0.0165862
0.0167405
0.0167319
0.0156274
0.0151029
0.0146807
0.0146388
0.0152023
0.0167533
0.01892
0.020374
0.0239998
0.0108332
0.010356
0.0097819
0.00923819
0.00872367
0.00820042
0.00762007
0.00751854
0.00697556
0.0128797
0.0151062
0.0168013
0.0183545
0.0185835
0.0190703
0.0181849
0.0162456
0.0157509
0.0152843
0.0152998
0.016092
0.0181807
0.0207467
0.0225641
0.0268234
0.0108467
0.0103594
0.00990005
0.00932175
0.00893299
0.00837003
0.00787377
0.00788464
0.00847676
0.0142218
0.015992
0.0180552
0.0197192
0.0203886
0.0212857
0.0198556
0.0172235
0.0168033
0.0163094
0.0164938
0.0177888
0.0206601
0.0234996
0.02581
0.0307038
0.0108514
0.0104225
0.00986321
0.00935607
0.0089631
0.00834325
0.00788038
0.00806069
0.0105863
0.0151003
0.0170747
0.019046
0.0212098
0.0232108
0.0246272
0.0225643
0.0184512
0.0179775
0.0178252
0.0184748
0.0204857
0.0240185
0.0271654
0.0301619
0.0353422
0.0109644
0.0104989
0.00991738
0.00953087
0.00914427
0.00847292
0.00842735
0.00865238
0.0123948
0.0158958
0.0182577
0.0203049
0.0229087
0.0274442
0.0286435
0.025806
0.0207274
0.0200178
0.0202568
0.0217465
0.0242389
0.0283307
0.0316751
0.0356008
0.0401157
0.0110084
0.0105065
0.00996131
0.00957183
0.00908226
0.00878107
0.00873942
0.00927126
0.0135249
0.0165576
0.0195651
0.0221011
0.0254024
0.0353839
0.033383
0.0300119
0.0241209
0.0239657
0.0243672
0.0263883
0.0294017
0.0335008
0.0371702
0.0415918
0.0443029
0.0109551
0.0105661
0.0100679
0.00969176
0.00924558
0.0090814
0.00921976
0.00985198
0.014242
0.0169808
0.0209198
0.0240712
0.0295636
0.0404571
0.0380282
0.0352867
0.0291068
0.0289307
0.0297583
0.0325968
0.0359999
0.0392105
0.0421094
0.0470673
0.0478459
0.010967
0.0106012
0.0100742
0.0097049
0.00937867
0.00915982
0.00928334
0.0105345
0.0140835
0.0171791
0.0228354
0.0270871
0.0356216
0.043405
0.0448242
0.0402472
0.0357275
0.0358928
0.0379255
0.0399233
0.0420686
0.043376
0.0463086
0.0516539
0.0510815
0.0109148
0.0106658
0.0102101
0.00985961
0.0095346
0.00912473
0.00941098
0.0103388
0.0127577
0.0174246
0.0257536
0.0315485
0.0410988
0.0461719
0.0492484
0.043862
0.0439798
0.0461251
0.0462421
0.0454343
0.0456032
0.0468297
0.0503543
0.0558552
0.0549783
0.0109521
0.0106653
0.0102562
0.00988325
0.00945717
0.00922694
0.00950083
0.0109888
0.012791
0.0174028
0.0283708
0.0344455
0.0375806
0.0456563
0.0459572
0.051515
0.0530328
0.057242
0.0529993
0.0499137
0.0473782
0.0489621
0.0540402
0.0589194
0.059899
0.0109218
0.0106969
0.010402
0.00986184
0.00939456
0.00922848
0.00974563
0.00988099
0.0138634
0.0171471
0.0299873
0.0302746
0.0374792
0.0452422
0.056707
0.0585269
0.0652702
0.064676
0.0558812
0.0523941
0.0510969
0.0522373
0.0564894
0.0613909
0.0619742
0.0109408
0.0107009
0.0103864
0.00982495
0.00946796
0.0093409
0.00951922
0.0108289
0.0133835
0.0182742
0.0304899
0.0321616
0.0324747
0.0506368
0.0566369
0.0529475
0.0708549
0.0702796
0.0609417
0.056815
0.0547983
0.0540316
0.0535854
0.0577058
0.0584133
0.0109363
0.0106795
0.0104138
0.00973728
0.00955708
0.00924458
0.00953976
0.0115954
0.0161397
0.0198471
0.0298708
0.0348086
0.0354422
0.0463755
0.0501681
0.0528809
0.0648666
0.0766222
0.0667225
0.0578761
0.0498236
0.0484751
0.0497269
0.0503209
0.0537339
0.0109295
0.0107069
0.010353
0.00958991
0.00958373
0.00961019
0.0104176
0.0134255
0.0170369
0.0202418
0.0263537
0.0314853
0.0345504
0.0313351
0.0379401
0.0374909
0.0410712
0.0680907
0.0594543
0.0519042
0.0458518
0.0441885
0.0436411
0.0433577
0.0461464
0.010912
0.010709
0.0103153
0.00939562
0.00967377
0.00998944
0.0107948
0.0140151
0.0170541
0.0197814
0.0195182
0.0290833
0.033436
0.0271809
0.029434
0.0276191
0.0295678
0.052191
0.0543317
0.0476286
0.0437139
0.0397313
0.0396804
0.0393612
0.0419197
0.010928
0.0106952
0.0101485
0.00942898
0.0101236
0.00994829
0.0111804
0.0150359
0.0168744
0.0186046
0.0211807
0.0206696
0.0252506
0.0216857
0.0203979
0.0232097
0.0235605
0.0384546
0.0457697
0.0428404
0.0403347
0.0361051
0.0344139
0.0348073
0.0382821
0.0109361
0.0106624
0.0100488
0.00951354
0.0108502
0.0113422
0.0127623
0.0154199
0.0173775
0.0194295
0.019195
0.0216035
0.0226044
0.0204018
0.0199772
0.0195225
0.0190171
0.024787
0.0380187
0.0360943
0.0354938
0.0320651
0.0302153
0.030777
0.0342615
0.0109478
0.0106343
0.00993145
0.00983489
0.0120775
0.0131993
0.0135437
0.0140589
0.0168147
0.0195738
0.0200757
0.0226076
0.0218363
0.0199824
0.01888
0.0181594
0.0170537
0.0155225
0.029918
0.0303665
0.0308546
0.0280665
0.0269683
0.0268308
0.0291552
0.0109203
0.0106956
0.00938624
0.0102162
0.0132152
0.0158771
0.0143969
0.0133457
0.0162488
0.017502
0.0198432
0.0210636
0.0221094
0.0207599
0.0195679
0.0185291
0.0172498
0.0156297
0.0236567
0.0264973
0.0265923
0.0245322
0.0240146
0.0234281
0.0251871
0.0109703
0.0102253
0.0101368
0.011404
0.011516
0.0127853
0.0132885
0.0122715
0.0120757
0.0153075
0.0157658
0.0173125
0.0173416
0.0186815
0.017879
0.0175334
0.0160242
0.0144067
0.0151807
0.0231819
0.0239455
0.0228559
0.0218578
0.0219497
0.0228644
0.0218069
0.0185043
0.0170832
0.0165576
0.0165349
0.0221693
0.0249623
0.027168
0.0253454
0.0263257
0.0277163
0.0275485
0.0284454
0.0265564
0.0259428
0.0257687
0.0246334
0.0233307
0.0228054
0.0366842
0.0401159
0.0389568
0.0379439
0.0372
0.0391467
0.0215717
0.019852
0.0186181
0.0176835
0.0171149
0.0161351
0.0143857
0.0132571
0.0130577
0.0122723
0.018051
0.0240474
0.025488
0.0257055
0.0260379
0.0256572
0.0254538
0.0253154
0.0257429
0.0267487
0.0282287
0.0293907
0.0302202
0.0341139
0.0444445
0.335965
0.138685
0.0806377
0.0547073
0.0409176
0.0301504
0.0223967
0.0171046
0.0174635
0.0218711
0.0221876
0.0273332
0.0341706
0.0378433
0.0378603
0.0354914
0.0326021
0.0287781
0.0263052
0.0269434
0.0309833
0.0372808
0.0385058
0.0395733
0.038295
0.33694
0.138777
0.0803108
0.0552945
0.0401521
0.031388
0.0239866
0.0180332
0.0172726
0.0204905
0.0212601
0.0255301
0.0304601
0.0344219
0.0353331
0.033958
0.0314216
0.0262612
0.0232014
0.0244324
0.0295769
0.0338049
0.0346878
0.0345087
0.0382019
0.336978
0.138857
0.0804365
0.0553087
0.0405303
0.0315136
0.0249783
0.0190617
0.0180235
0.0189797
0.0215484
0.0270531
0.0326865
0.0382584
0.0412078
0.0410171
0.0385664
0.0305666
0.0254278
0.0269385
0.0314897
0.0338389
0.0343861
0.0339289
0.0471749
0.336892
0.13895
0.080712
0.0553632
0.041001
0.0323696
0.0262133
0.0205568
0.0193647
0.0193866
0.022465
0.0285411
0.0350566
0.0410363
0.0448156
0.0451841
0.0428422
0.0336842
0.0275516
0.0287995
0.0325052
0.0351246
0.0354035
0.0364726
0.0786264
0.336969
0.138852
0.080558
0.0551525
0.040981
0.0329912
0.0262175
0.021613
0.0203624
0.0206944
0.0241066
0.0321654
0.038524
0.043259
0.0478732
0.0483341
0.0454691
0.0352964
0.0302029
0.0311105
0.0342917
0.0368408
0.0380851
0.0413472
0.136782
0.337034
0.139075
0.080633
0.0550539
0.0414321
0.033392
0.0269035
0.0237059
0.0217992
0.0217937
0.0258191
0.037481
0.0414898
0.0462771
0.0517048
0.0516986
0.0476567
0.0370582
0.0334854
0.0348005
0.0378316
0.041137
0.0434422
0.0492847
0.145552
0.337334
0.139011
0.0803007
0.0547818
0.0413768
0.0332958
0.0278219
0.0254594
0.0229074
0.0218348
0.0303617
0.0415101
0.0462166
0.0517107
0.0556199
0.0551164
0.049467
0.0395787
0.0390451
0.0408296
0.0440287
0.047968
0.049622
0.0511752
0.193787
0.337462
0.138809
0.0799268
0.0543246
0.0409255
0.0327712
0.0286448
0.0260989
0.022855
0.0235854
0.0376722
0.0454491
0.0493941
0.0552717
0.0581567
0.057958
0.0517263
0.0468879
0.0468761
0.0486133
0.0524128
0.0517206
0.0510185
0.0512684
0.081737
0.337755
0.138199
0.0793331
0.053316
0.0401086
0.032306
0.0293123
0.0266878
0.024285
0.0299177
0.0415185
0.04721
0.0522539
0.0569263
0.0603639
0.0607279
0.0572913
0.0562034
0.0565369
0.0559273
0.0565297
0.0556818
0.05352
0.0524182
0.0877871
0.337843
0.137812
0.0786157
0.0522247
0.039528
0.0334971
0.0296385
0.0276663
0.0283469
0.0349065
0.0415989
0.0455286
0.0520686
0.0581951
0.0617965
0.0634049
0.0643784
0.0642413
0.0613766
0.0590781
0.0583013
0.0565164
0.0546226
0.0525026
0.0467836
0.338018
0.137593
0.077452
0.0507038
0.0389503
0.0336963
0.0290526
0.0293191
0.0314022
0.0359564
0.040192
0.0466276
0.0549032
0.0578831
0.0618587
0.0667055
0.0688031
0.0673279
0.0634592
0.0600761
0.0585342
0.0580727
0.0558849
0.0519832
0.0442972
0.33804
0.137174
0.0758911
0.0501359
0.03757
0.0334987
0.0287121
0.0302192
0.031657
0.0320847
0.0368094
0.0435867
0.0549523
0.0589177
0.0624237
0.0687425
0.0710362
0.069297
0.0627565
0.0606838
0.0592646
0.05862
0.0559011
0.0510798
0.0427266
0.338215
0.135919
0.0756091
0.0474927
0.0369612
0.0339621
0.0295769
0.0312185
0.0291499
0.0306546
0.037075
0.0453447
0.0542067
0.0601212
0.0626511
0.0685713
0.0730115
0.0697064
0.0623008
0.0596579
0.0594444
0.0575704
0.0554714
0.0498205
0.041924
0.338128
0.134818
0.0742108
0.0447988
0.0375867
0.0328287
0.0312029
0.0333459
0.0280435
0.0302055
0.0418066
0.0474391
0.0565937
0.0615097
0.0643094
0.0669747
0.0735565
0.0696988
0.0618788
0.0585117
0.0565017
0.0550912
0.0528403
0.0489203
0.0417006
0.337851
0.133531
0.0718838
0.0434463
0.0365804
0.032525
0.0333724
0.0346937
0.0290716
0.0323018
0.0394448
0.0516794
0.055493
0.0601604
0.0621368
0.0668999
0.0728903
0.0707036
0.06445
0.0596089
0.0556824
0.0528516
0.0510604
0.0482085
0.0413646
0.337366
0.13166
0.0700525
0.0432324
0.0370019
0.0330056
0.0358644
0.0373649
0.0311423
0.0331721
0.0418777
0.0492722
0.0550906
0.059023
0.0590706
0.0635903
0.0698525
0.0697151
0.0650026
0.0604299
0.057233
0.053368
0.0522712
0.0499589
0.0415212
0.337002
0.130487
0.0684088
0.0409971
0.0372634
0.0329316
0.0326937
0.0347184
0.030874
0.0356555
0.0475045
0.052506
0.0534901
0.0576777
0.0577336
0.0617861
0.0702641
0.0761473
0.0678262
0.0621781
0.0612272
0.0548013
0.0516033
0.0494232
0.0403956
0.336261
0.130518
0.0669677
0.0409262
0.0363648
0.0341141
0.0399902
0.0402313
0.0324479
0.0389385
0.0470568
0.0525526
0.0531872
0.0541382
0.0560494
0.0624068
0.0701295
0.0762379
0.0721019
0.0667617
0.0602915
0.0536394
0.0513137
0.0468091
0.0407797
0.335547
0.131203
0.0660269
0.0416215
0.03573
0.0397896
0.0334093
0.0316046
0.0389785
0.044793
0.0486051
0.0540555
0.05443
0.0533631
0.0539028
0.0502139
0.050141
0.0658402
0.0717235
0.0692703
0.0618872
0.0533533
0.0466537
0.0447775
0.0448506
0.33475
0.133433
0.0652216
0.0399785
0.0401168
0.0370438
0.0582152
0.0410439
0.0466393
0.0415918
0.0465476
0.0522541
0.0505163
0.0493577
0.046992
0.0430429
0.0384062
0.0400465
0.0623952
0.0672143
0.0621347
0.0543655
0.0459934
0.0438644
0.0624718
0.33423
0.13496
0.0642924
0.033957
0.0359388
0.0379335
0.031206
0.0307336
0.0412059
0.0377006
0.0431661
0.049035
0.0493759
0.0488827
0.0453428
0.0390462
0.0335116
0.0334084
0.0467011
0.0589725
0.0599965
0.0542776
0.0469441
0.0431692
0.0673396
0.335037
0.130801
0.0611126
0.0330422
0.0270225
0.0401339
0.0356492
0.0355679
0.0356961
0.0348607
0.0419886
0.0472256
0.0494859
0.0478098
0.0436573
0.0392393
0.0339446
0.0289045
0.0348834
0.045664
0.0505765
0.0489494
0.0425434
0.0410437
0.0535025
0.326599
0.112407
0.0485453
0.0250337
0.0203222
0.0326327
0.0331061
0.0350579
0.0385527
0.039114
0.043382
0.0481614
0.0449161
0.043936
0.0396918
0.0342164
0.0333034
0.0361877
0.0307092
0.0374578
0.0438916
0.0426987
0.037854
0.0343454
0.0398529
0.0219333
0.0197816
0.0185495
0.015157
0.0169364
0.0238579
0.0275979
0.0320916
0.0355775
0.0365858
0.0330066
0.030594
0.0305779
0.0274972
0.0298616
0.0314521
0.0314964
0.0294492
0.0278345
0.0371094
0.0421574
0.0429314
0.0402182
0.0403061
0.0437345
0.021844
0.0198395
0.0183932
0.0174505
0.016811
0.0166043
0.0155886
0.0149163
0.0152028
0.0146717
0.0182127
0.0250069
0.0265796
0.0273753
0.0272803
0.027262
0.0281667
0.0287199
0.0292037
0.0302209
0.0315071
0.0325633
0.0342601
0.0364815
0.0437134
0.338261
0.139758
0.082958
0.0580952
0.0453879
0.0367968
0.0294265
0.0242017
0.0242457
0.0303417
0.0306622
0.0362309
0.0398788
0.0425729
0.0437011
0.0430012
0.0411939
0.0376138
0.034974
0.0328138
0.034182
0.0382152
0.0405723
0.0434612
0.0429833
0.338873
0.13974
0.082608
0.0580632
0.0451863
0.0363854
0.0313728
0.0274008
0.0239792
0.0275398
0.0292675
0.0291916
0.0316103
0.035013
0.0382975
0.0395128
0.0389665
0.0368938
0.0337704
0.0303894
0.0317206
0.0349409
0.037574
0.0386566
0.0418741
0.338928
0.13981
0.0825227
0.0580609
0.0450149
0.0365039
0.0314075
0.0280128
0.0248828
0.0262632
0.0266474
0.0270386
0.0309337
0.0341067
0.0388404
0.0444165
0.0459252
0.0446521
0.042069
0.036917
0.037315
0.039314
0.0404296
0.0400388
0.0455681
0.338929
0.140034
0.0825969
0.0581503
0.0449067
0.0367045
0.0314965
0.0282823
0.0268488
0.0270524
0.0265881
0.027642
0.0313326
0.0322917
0.0385696
0.0478789
0.0501705
0.0490702
0.045036
0.039135
0.0398914
0.0410459
0.0413346
0.0420678
0.0526145
0.338986
0.140042
0.0824475
0.0580641
0.0445661
0.0366564
0.0313877
0.028043
0.027793
0.0283491
0.0279814
0.0301141
0.0316642
0.0354102
0.0469461
0.0563115
0.0568564
0.0538686
0.0470941
0.0434515
0.0426196
0.0429848
0.04317
0.0448507
0.0591894
0.338944
0.14013
0.0824578
0.0580091
0.0444568
0.0365428
0.0316775
0.0273616
0.0273892
0.0287524
0.0313796
0.0353394
0.0405347
0.0463902
0.0591617
0.0621792
0.0610744
0.0561441
0.0490344
0.0456478
0.0452416
0.0456216
0.0458983
0.0489864
0.0558458
0.33897
0.139914
0.0821254
0.0575936
0.0439816
0.0360953
0.0316178
0.0267402
0.027858
0.030142
0.0367354
0.0438126
0.0486069
0.0557818
0.0640822
0.0644743
0.0636661
0.0583981
0.0526872
0.0492743
0.0493513
0.0493859
0.048348
0.0491345
0.0573431
0.338875
0.139817
0.0819684
0.0573537
0.0436889
0.036422
0.0307603
0.0264964
0.0275454
0.0328683
0.0413194
0.0462785
0.0519593
0.0604651
0.0660311
0.0666802
0.0662502
0.0616708
0.0570275
0.0547919
0.0537668
0.0518446
0.0502653
0.0498116
0.0465215
0.338904
0.139677
0.0817059
0.0567225
0.0436485
0.0356197
0.0303178
0.0263904
0.028492
0.036219
0.0427477
0.0492765
0.0570726
0.0628722
0.0676563
0.0668016
0.066312
0.0626776
0.058327
0.056615
0.0552414
0.0532457
0.0502063
0.0491261
0.0456325
0.338864
0.139673
0.0815458
0.0563222
0.0435171
0.0350696
0.0297877
0.0275111
0.0312786
0.0362408
0.0420229
0.050961
0.0572266
0.064998
0.0682238
0.0653992
0.0655517
0.0628872
0.0595632
0.0580559
0.0565062
0.054121
0.0511329
0.0498405
0.0441999
0.338927
0.139664
0.0812555
0.0556384
0.0435063
0.0343434
0.028387
0.0301316
0.0335715
0.0378035
0.0414165
0.0530376
0.0584692
0.0644158
0.0655643
0.0666191
0.065108
0.062373
0.0600505
0.0586099
0.0573741
0.0552868
0.0516262
0.0492296
0.0429684
0.33889
0.139728
0.080979
0.0553
0.0436405
0.0332019
0.0298445
0.0327431
0.0347638
0.0365605
0.0416437
0.0530129
0.0598327
0.0641557
0.068973
0.066435
0.0658723
0.0624474
0.0599434
0.0583566
0.0575231
0.0551319
0.0513779
0.0472831
0.0410078
0.338961
0.139789
0.0808372
0.0552093
0.043008
0.0327256
0.0310978
0.0335958
0.0363155
0.0386647
0.0419097
0.0520507
0.0623087
0.06313
0.0662322
0.067197
0.0653312
0.0609632
0.0591875
0.0583084
0.056362
0.053908
0.0500434
0.0465278
0.0406744
0.338991
0.139799
0.0807406
0.0548299
0.0426372
0.032347
0.0312669
0.0345954
0.0369086
0.0374811
0.0430467
0.0564612
0.0606304
0.0652194
0.0661018
0.0679689
0.0660588
0.0602051
0.0569425
0.0553672
0.0535835
0.0512042
0.0481503
0.0458762
0.0411127
0.338991
0.139727
0.0805484
0.0546625
0.0419131
0.0323749
0.0326395
0.0352779
0.0370316
0.0393431
0.0491655
0.0554512
0.0590353
0.0638481
0.0676742
0.0685904
0.0656819
0.0632881
0.058942
0.0546933
0.0522793
0.0496145
0.048034
0.046175
0.0409951
0.339
0.139393
0.0806058
0.0546045
0.0419243
0.0325488
0.0331202
0.0362427
0.0367679
0.0433291
0.046751
0.0542876
0.0585167
0.0618855
0.065396
0.0677735
0.0659471
0.0643712
0.059809
0.0558736
0.0534275
0.0509224
0.0494576
0.0482623
0.0407816
0.338976
0.139092
0.0810077
0.0541539
0.0421002
0.0329879
0.0337512
0.0371233
0.0368885
0.040528
0.0455081
0.0530582
0.0565704
0.0602127
0.0638702
0.0651231
0.0681708
0.0700046
0.0595652
0.0558689
0.0573251
0.0523824
0.0498054
0.0453899
0.0401554
0.339
0.138914
0.0819981
0.0540315
0.0423904
0.0329707
0.0330852
0.0364912
0.0423784
0.0487872
0.048352
0.0528743
0.0544214
0.056608
0.0599673
0.063772
0.0724145
0.0727813
0.0707295
0.0618052
0.0591384
0.051854
0.0481498
0.0449777
0.0441302
0.338881
0.13944
0.0830641
0.054345
0.041528
0.032395
0.0310576
0.0321299
0.0399862
0.0476439
0.0504315
0.0516074
0.0543786
0.054326
0.0556234
0.0596866
0.0680582
0.0757528
0.0774426
0.0720869
0.0635853
0.0532747
0.0464707
0.0458414
0.07308
0.33885
0.140312
0.0842053
0.0544275
0.0415999
0.0353769
0.0334404
0.0336206
0.0387677
0.0452502
0.0482302
0.0509384
0.0529429
0.0538787
0.053995
0.0512384
0.053553
0.057942
0.0711857
0.0718364
0.0672476
0.0543324
0.0455552
0.0466286
0.229147
0.33872
0.141802
0.0850532
0.0539023
0.0420722
0.0391679
0.0363952
0.0366999
0.0375486
0.0417331
0.0456403
0.0493698
0.052253
0.0528025
0.0526763
0.0464838
0.044516
0.0447841
0.0486277
0.057595
0.0627834
0.0587774
0.0489599
0.0705516
0.290982
0.33919
0.144132
0.081787
0.0540012
0.0398549
0.0401093
0.03922
0.0353299
0.0353465
0.0374978
0.0463659
0.049785
0.0530607
0.0525669
0.0512499
0.0451578
0.0400895
0.0370142
0.0380778
0.0420686
0.0481807
0.0529538
0.0506781
0.0606694
0.0853157
0.336384
0.131757
0.068965
0.0416916
0.0332093
0.0304838
0.0321425
0.0388598
0.0395252
0.0404716
0.0495969
0.0499861
0.0523691
0.0518201
0.0474878
0.0426812
0.0383147
0.0374871
0.0409634
0.0412256
0.0438818
0.0442389
0.0446388
0.0454649
0.0623152
0.0216358
0.0205612
0.0188033
0.0177115
0.0186911
0.0189413
0.0202186
0.0289679
0.0317922
0.0390969
0.0406996
0.0390618
0.0407579
0.0355679
0.0351325
0.0330378
0.0320482
0.0321153
0.0304461
0.0362487
0.0396619
0.0411017
0.0397933
0.0406736
0.0426109
0.0218206
0.019933
0.0184608
0.0175005
0.0168347
0.0167359
0.0161701
0.0156534
0.0156386
0.0157356
0.0180971
0.0266547
0.0276285
0.0280616
0.0281969
0.0282712
0.0291661
0.0298312
0.0306373
0.0315898
0.0325256
0.0333885
0.0350826
0.036135
0.0409281
0.338589
0.139855
0.0828677
0.0583852
0.0452554
0.0378489
0.0309066
0.0254644
0.0251058
0.0304387
0.0344471
0.0384645
0.0445905
0.0454238
0.0455607
0.0463207
0.0451066
0.043289
0.0397633
0.0369974
0.0359731
0.0374331
0.0389062
0.041615
0.0406226
0.338886
0.139855
0.0827532
0.0584672
0.0453746
0.0373621
0.0324461
0.0284801
0.0256489
0.0288145
0.0349942
0.0356394
0.035936
0.0369455
0.0401023
0.0449255
0.0452494
0.0447938
0.0429618
0.0400234
0.0374886
0.0371881
0.0371172
0.0377947
0.0385269
0.338929
0.139955
0.0827723
0.0585059
0.0452579
0.0374253
0.0326637
0.0279121
0.0253489
0.0278751
0.0325612
0.0316435
0.0324971
0.0337266
0.0392772
0.0466857
0.0510661
0.0521988
0.0514132
0.0467487
0.0430444
0.0414808
0.0395257
0.0393516
0.0413527
0.338968
0.140217
0.0828994
0.0586345
0.0450996
0.037737
0.0326962
0.0272146
0.0257789
0.0275807
0.0304254
0.0305647
0.0303753
0.0322759
0.0428076
0.0542706
0.0598801
0.0597991
0.0547211
0.0488653
0.0450811
0.0407521
0.0415753
0.0422989
0.0450871
0.339005
0.140213
0.0828996
0.0584325
0.0450613
0.0374852
0.0324632
0.0272288
0.0266593
0.0279608
0.0317459
0.0337312
0.0374341
0.0482689
0.0620173
0.0628804
0.0654362
0.0626077
0.0556355
0.0501987
0.0472787
0.0428341
0.0421759
0.0432175
0.0477207
0.338971
0.140241
0.0829394
0.0583502
0.0450986
0.0371258
0.0325077
0.0273842
0.0267986
0.0297339
0.0364597
0.0428509
0.0544591
0.0614718
0.0659002
0.0649418
0.0674517
0.0637539
0.05761
0.0511611
0.0476254
0.0454495
0.0430098
0.0439402
0.0477559
0.338957
0.140023
0.082731
0.0582028
0.0444356
0.0375923
0.0308265
0.0273918
0.0298444
0.0348555
0.0442315
0.0541597
0.0569463
0.0602864
0.0627946
0.0668979
0.0676726
0.0650806
0.0596427
0.052512
0.0486585
0.0465726
0.0445538
0.0440514
0.0470309
0.338903
0.139905
0.0828045
0.0577394
0.0446939
0.0370062
0.0295404
0.0287645
0.032761
0.037969
0.0453155
0.0546943
0.0586666
0.0641984
0.0675251
0.0683062
0.0672785
0.0650655
0.0601356
0.0548074
0.0515193
0.0475224
0.0444592
0.0436508
0.0429792
0.338912
0.139812
0.0825588
0.0573002
0.0450472
0.035613
0.0290045
0.0306985
0.0337056
0.037579
0.0447584
0.056131
0.0607792
0.0656324
0.0665263
0.0668311
0.0675614
0.0646735
0.0602027
0.0569662
0.0523891
0.0500022
0.0448124
0.0435125
0.0427736
0.338872
0.139879
0.0822987
0.0573002
0.0447475
0.0342545
0.0291552
0.0310389
0.0340673
0.036502
0.044726
0.0547563
0.0662655
0.0688174
0.0698803
0.0664626
0.0670874
0.0637427
0.060759
0.0582255
0.0547919
0.0521127
0.0495995
0.0489208
0.0462492
0.338891
0.13994
0.0818664
0.0574589
0.0438998
0.0332066
0.0299825
0.0317445
0.0366479
0.0385099
0.044411
0.0558726
0.0649132
0.0663681
0.06883
0.0689735
0.0656458
0.0630528
0.0616109
0.0600194
0.0569792
0.0553866
0.0516486
0.0497116
0.0451564
0.338877
0.139972
0.081772
0.0573068
0.0437761
0.0336798
0.0290203
0.0314965
0.0365058
0.0396136
0.0462719
0.0569388
0.0657708
0.0692164
0.0687804
0.0679
0.0645342
0.0632893
0.0628208
0.06147
0.059717
0.0563201
0.0524053
0.0493883
0.0439149
0.338906
0.139984
0.0817414
0.0569908
0.0439429
0.0328778
0.0318881
0.03349
0.0354495
0.0401772
0.0442072
0.0574082
0.0630447
0.0652152
0.0674462
0.0680228
0.0638649
0.0627214
0.0631891
0.0622413
0.0595454
0.0562517
0.0533084
0.0507849
0.0440897
0.338887
0.140032
0.0815479
0.0571837
0.0434163
0.0326308
0.0323983
0.0342618
0.0354085
0.0401159
0.0440679
0.0584458
0.0633932
0.0658005
0.0664665
0.0670904
0.0634618
0.0606683
0.0610273
0.0602672
0.0560897
0.0535047
0.0516056
0.0484864
0.0439132
0.338929
0.140069
0.0815025
0.0575357
0.0427524
0.0328526
0.0318758
0.03334
0.0358285
0.0405432
0.0455844
0.0591311
0.0610701
0.0665796
0.0686874
0.0647535
0.0637058
0.0646511
0.0628395
0.0602337
0.0563766
0.0529312
0.0512346
0.0486421
0.0434634
0.339
0.139953
0.0817657
0.0574962
0.0423502
0.034682
0.0328752
0.0355941
0.036619
0.0451766
0.0513194
0.0605163
0.0626271
0.0662437
0.0677743
0.0649434
0.0630652
0.0655539
0.0620728
0.0577185
0.0559092
0.0545817
0.0524385
0.0514909
0.0423999
0.338984
0.139661
0.0821079
0.0572694
0.0429259
0.0331152
0.0338928
0.0358489
0.036918
0.0436223
0.0483845
0.0573248
0.063024
0.0663315
0.0672865
0.0683574
0.0633053
0.0628269
0.0581432
0.0583466
0.0564015
0.0546675
0.0518863
0.0501193
0.0414104
0.338911
0.139405
0.0825606
0.0577297
0.0422218
0.0333639
0.0346634
0.0360139
0.0385912
0.0429185
0.0488019
0.0540073
0.0602108
0.0634027
0.0636782
0.0640321
0.070326
0.068323
0.0624601
0.065686
0.0608591
0.0541611
0.0496384
0.0476884
0.0482303
0.338773
0.139003
0.0831296
0.0580298
0.0417471
0.0329762
0.0350328
0.0351985
0.0430824
0.0448562
0.0491274
0.0547105
0.0608163
0.0615041
0.0621066
0.0635445
0.06899
0.0752466
0.072844
0.0725591
0.0671551
0.0587449
0.0504225
0.0491965
0.0925095
0.338684
0.138767
0.0840685
0.0580154
0.0431949
0.0343739
0.033589
0.0348367
0.0425736
0.045343
0.0527852
0.0536381
0.0603892
0.0604881
0.0576724
0.0566586
0.0614449
0.0622491
0.0714021
0.0699847
0.0679532
0.061848
0.055213
0.0514268
0.230622
0.338752
0.138927
0.0847564
0.0578853
0.0456567
0.0380157
0.034395
0.0359061
0.0391755
0.0463851
0.0516607
0.0558415
0.0586159
0.0605283
0.0584445
0.0536556
0.0511646
0.0485123
0.0470892
0.0476684
0.0531233
0.0545642
0.0546724
0.0606079
0.266421
0.338824
0.140972
0.084399
0.0593246
0.0469324
0.0394018
0.0371097
0.0359966
0.044134
0.0476429
0.0544198
0.0579839
0.0617555
0.0626835
0.058971
0.0546888
0.0467526
0.0426812
0.0389167
0.0389733
0.0407691
0.0441911
0.0475704
0.057989
0.141226
0.337382
0.140201
0.0737597
0.0490376
0.0405859
0.0371009
0.0355613
0.0360811
0.0400629
0.0478912
0.050385
0.0609998
0.0642003
0.0647917
0.0619618
0.0540653
0.0442068
0.044435
0.0431527
0.0483326
0.0464256
0.0436575
0.0435014
0.0447878
0.0685604
0.0216058
0.0206056
0.0191309
0.0173559
0.0202068
0.0229859
0.0279071
0.0285908
0.0317018
0.0411048
0.0435544
0.0421815
0.0395843
0.0377575
0.0351614
0.0350446
0.032478
0.0313195
0.0307676
0.0344132
0.0371668
0.0386514
0.0379285
0.0391062
0.0400794
0.0217873
0.0200609
0.0186402
0.0176704
0.0169514
0.016629
0.0167146
0.0166539
0.0166237
0.0168907
0.0185061
0.0256554
0.0293317
0.0299059
0.0300304
0.0311424
0.0329061
0.0341891
0.0344835
0.0341948
0.0351833
0.0359078
0.0365846
0.0370422
0.0392724
0.338939
0.140375
0.0831887
0.0587283
0.0457653
0.0380432
0.032873
0.0273761
0.0252975
0.0273758
0.0397847
0.0408601
0.0447741
0.049548
0.0507568
0.0504805
0.0495325
0.0470441
0.0460385
0.0434111
0.0414538
0.040083
0.039253
0.0399087
0.0379273
0.339018
0.140386
0.0832545
0.0588133
0.0459601
0.0377635
0.0332815
0.0296362
0.0258551
0.02679
0.0361142
0.0413086
0.0430921
0.0431939
0.0460793
0.0483311
0.0478482
0.0466679
0.0454808
0.0439187
0.040799
0.0392436
0.0379103
0.0364399
0.0360603
0.339014
0.140367
0.0832891
0.0587915
0.0459797
0.0375111
0.0339166
0.0289658
0.0252153
0.0262024
0.0329748
0.0366325
0.036226
0.0367316
0.0443539
0.0512801
0.0495724
0.0495943
0.0491245
0.0501174
0.0460647
0.0433784
0.0395279
0.0384117
0.0390071
0.339034
0.140498
0.0833786
0.058832
0.0458878
0.0375529
0.0338846
0.0287483
0.0250714
0.0258061
0.0312026
0.0333676
0.0339719
0.0420067
0.0525223
0.0531883
0.0556473
0.0558254
0.0573631
0.0526962
0.0480106
0.0412264
0.0407019
0.0417405
0.0410173
0.339041
0.140483
0.0833044
0.0587276
0.0457259
0.037523
0.0334848
0.028476
0.0256084
0.0253424
0.0296071
0.0372729
0.0538124
0.0614039
0.0646167
0.065295
0.0632011
0.0645503
0.0601311
0.0531082
0.0490769
0.0428079
0.0420265
0.042269
0.0420295
0.339019
0.140496
0.0832555
0.0588077
0.0454672
0.037521
0.0332754
0.0274828
0.0264986
0.0294204
0.0407572
0.0576575
0.060903
0.0659737
0.0647379
0.0683334
0.0641763
0.065323
0.0612146
0.0544462
0.0503862
0.0462099
0.0422724
0.0431745
0.0436327
0.338991
0.140232
0.0831541
0.0585453
0.0449573
0.0381998
0.0314185
0.0271465
0.0294374
0.0387429
0.0498415
0.0583547
0.061483
0.0660064
0.0654585
0.0679055
0.063953
0.0653876
0.0625393
0.0571835
0.0507522
0.0460244
0.0460815
0.0453283
0.0450773
0.338939
0.140051
0.0832141
0.0581795
0.0456891
0.0371048
0.0296568
0.0294938
0.0351012
0.0410257
0.0502533
0.0620352
0.064278
0.0676888
0.0643251
0.0627034
0.0650405
0.0653993
0.0624935
0.0574548
0.0535704
0.0468726
0.0483969
0.0490612
0.0490601
0.3389
0.139909
0.0827986
0.0580926
0.0453385
0.0355453
0.0294613
0.0304627
0.0359914
0.0401054
0.0511446
0.0624694
0.0654405
0.0670879
0.0631425
0.0620093
0.0628016
0.0631927
0.0608518
0.0589008
0.0527916
0.050641
0.0514976
0.0503042
0.0488556
0.338857
0.139854
0.0826416
0.0584121
0.0449337
0.033809
0.0300087
0.031105
0.0358052
0.0396312
0.0498129
0.0642029
0.0679812
0.0671273
0.0659028
0.067606
0.0674551
0.0658142
0.0636012
0.0620673
0.0577802
0.0556401
0.0532777
0.0517465
0.0487409
0.338845
0.139754
0.0826102
0.0578295
0.0442369
0.0342442
0.0292893
0.0312831
0.0352706
0.038396
0.0503271
0.0661635
0.0680379
0.0690154
0.0682717
0.068188
0.0684633
0.0677713
0.0663629
0.0643676
0.0612371
0.0582661
0.0531498
0.0508089
0.0461484
0.338814
0.139738
0.0826126
0.0575512
0.0442012
0.0332281
0.0314423
0.0345296
0.0364953
0.0402658
0.0479489
0.0644246
0.0665253
0.0687481
0.069502
0.0678519
0.0693774
0.0699269
0.0689553
0.0660954
0.0612731
0.0572189
0.0522933
0.0509281
0.0454501
0.338843
0.139885
0.0824963
0.0575015
0.0441021
0.0330999
0.0333078
0.0347324
0.0370107
0.0391921
0.0456614
0.0635148
0.0669708
0.0688506
0.0678844
0.067183
0.0695945
0.0714632
0.0696053
0.0652395
0.0604869
0.0574421
0.0531764
0.0511287
0.0454767
0.338872
0.140053
0.0824947
0.057645
0.0443291
0.0336375
0.0322538
0.0334788
0.0374112
0.0415314
0.0462235
0.0613994
0.0648135
0.0680349
0.0692544
0.0681064
0.0692752
0.0704915
0.0688683
0.0622701
0.0597152
0.0555477
0.0541386
0.0521973
0.0462219
0.339017
0.140441
0.0827118
0.0578393
0.0444564
0.0335207
0.0318272
0.0349901
0.0371254
0.0413244
0.0466504
0.0611702
0.0625344
0.0692753
0.0707908
0.0674029
0.0720294
0.0689896
0.0668432
0.0603473
0.0605941
0.0578956
0.0558107
0.0511677
0.0448269
0.339101
0.140851
0.0824763
0.0589509
0.0432667
0.0335218
0.0346644
0.0383526
0.037172
0.0419303
0.0478649
0.061742
0.0624787
0.0661544
0.0710127
0.0672792
0.0663339
0.0647965
0.0618306
0.0593672
0.0577787
0.0568893
0.0567508
0.0527303
0.0429546
0.339197
0.140974
0.0828705
0.059021
0.0436444
0.0331407
0.0366344
0.0384393
0.0397243
0.0448285
0.0506093
0.0580502
0.0648118
0.0682378
0.0704948
0.0675364
0.0708834
0.0626806
0.0592581
0.0593671
0.0611287
0.0564226
0.0543713
0.0483101
0.0402677
0.339123
0.140604
0.083347
0.058849
0.0433284
0.0337761
0.036938
0.0390807
0.0469245
0.0473144
0.0493798
0.0519898
0.0622795
0.0651059
0.0691325
0.0659759
0.0663747
0.0630806
0.0612199
0.0605775
0.0591645
0.0544517
0.0486958