/*--------------------------------*- C++ -*----------------------------------*\
  =========                 |
  \\      /  F ield         | OpenFOAM: The Open Source CFD Toolbox
   \\    /   O peration     | Website:  https://openfoam.org
    \\  /    A nd           | Version:  11
     \\/     M anipulation  |
\*---------------------------------------------------------------------------*/
FoamFile
{
    format      ascii;
    class       volScalarField;
    location    "50";
    object      p;
}
// * * * * * * * * * * * * * * * * * * * * * * * * * * * * * * * * * * * * * //

dimensions      [0 2 -2 0 0 0 0];

internalField   nonuniform List<scalar> 
17196
(
0.93743
0.920911
0.69895
0.631962
0.701089
0.551954
0.305197
0.231569
0.325632
0.555584
0.908774
1.25604
1.85493
2.15037
2.17912
2.20906
2.22637
2.14188
1.98979
1.82131
1.66306
1.49613
1.30944
1.05156
0.748611
0.933579
0.905295
0.696399
0.647854
0.721516
0.552236
0.244242
0.145287
0.297457
0.388821
0.648965
1.05215
1.52105
1.77081
1.8768
1.97274
2.04616
2.02288
1.92456
1.79475
1.6585
1.52811
1.35038
1.06566
0.683773
0.93368
0.904321
0.720217
0.661332
0.698236
0.539014
0.220528
0.026667
0.146361
0.204522
0.324362
0.592076
0.970464
1.25566
1.45283
1.62953
1.7781
1.84213
1.81524
1.72951
1.62268
1.52073
1.37061
1.03006
0.638377
0.935749
0.91454
0.717007
0.629532
0.648143
0.524413
0.242437
-0.0523286
-0.0542025
-0.0373367
-0.0280501
0.0183671
0.251121
0.564851
0.862917
1.1471
1.39465
1.55006
1.60264
1.58348
1.51938
1.43771
1.32039
0.966536
0.555098
0.93974
0.929374
0.710026
0.589972
0.598151
0.503966
0.250521
-0.0990318
-0.23749
-0.304013
-0.449602
-0.619002
-0.460731
-0.0869427
0.290564
0.641296
0.938581
1.14702
1.26842
1.32296
1.29901
1.21695
1.07986
0.738241
0.352566
0.94414
0.946444
0.725611
0.594052
0.590277
0.479315
0.192703
-0.221888
-0.472608
-0.691089
-1.02764
-1.27211
-1.0676
-0.636409
-0.248123
0.0912259
0.38428
0.605791
0.759476
0.854137
0.853995
0.750749
0.549221
0.246346
0.0177625
0.949136
0.953408
0.742403
0.644816
0.639016
0.511301
0.144116
-0.371032
-0.760358
-1.14752
-1.63657
-1.79666
-1.47329
-1.0348
-0.710289
-0.430614
-0.164663
0.0361041
0.166446
0.23162
0.20202
0.0462041
-0.197846
-0.393431
-0.345314
0.954307
0.956306
0.742403
0.685002
0.691327
0.605177
0.211102
-0.385259
-0.9058
-1.42433
-1.94375
-1.99403
-1.63946
-1.26089
-1.01131
-0.788512
-0.55117
-0.39798
-0.349957
-0.39521
-0.538506
-0.784783
-0.970043
-1.00572
-0.498549
0.961942
0.962128
0.737539
0.692981
0.702377
0.707356
0.30991
-0.276031
-0.782575
-1.30856
-1.7804
-1.82173
-1.56313
-1.26973
-1.04908
-0.846595
-0.641824
-0.56632
-0.653308
-0.864192
-1.16866
-1.49077
-1.51321
-1.27855
-0.401559
0.971656
0.97454
0.741812
0.707863
0.71967
0.735046
0.319953
-0.148142
-0.485184
-0.882595
-1.29619
-1.36071
-1.20261
-0.991377
-0.800334
-0.625371
-0.468564
-0.480585
-0.701495
-1.0444
-1.44458
-1.73532
-1.56623
-1.05621
-0.0931924
0.985197
0.995637
0.751976
0.736034
0.778299
0.703442
0.241172
-0.0351228
-0.11652
-0.405232
-0.7598
-0.770571
-0.631633
-0.473058
-0.337791
-0.214213
-0.115379
-0.193704
-0.456784
-0.776483
-1.09328
-1.21919
-0.906839
-0.359493
0.374658
1.00111
1.01481
0.760591
0.754914
0.862658
0.639953
0.128065
0.112461
0.277013
0.00243809
-0.287637
-0.215218
-0.0408
0.0907484
0.184872
0.3018
0.370967
0.292607
0.150943
0.0380686
-0.0593914
-0.0137716
0.291869
0.638483
0.877922
1.02142
1.03596
0.770136
0.75104
0.857719
0.45392
0.000174286
0.290534
0.639405
0.348146
0.134749
0.295086
0.481793
0.564947
0.650602
0.815208
0.92276
0.972376
1.10168
1.27832
1.37875
1.46145
1.60859
1.62069
1.40178
1.04677
1.05829
0.783434
0.741627
0.731781
0.158405
-0.0955306
0.494912
0.960617
0.688663
0.569555
0.789994
0.952901
0.978402
1.05469
1.26589
1.48167
1.76748
2.1983
2.61223
2.82686
2.85191
2.75867
2.34915
1.82946
1.07999
1.08928
0.830561
0.785194
0.562747
-0.161527
-0.0995473
0.746898
1.28585
1.10909
1.08656
1.31
1.41555
1.38958
1.43665
1.66796
2.03359
2.58974
3.25179
3.75475
3.95264
3.84034
3.57568
2.69169
1.90276
1.12094
1.13571
0.911848
0.872995
0.425898
-0.388226
-0.0126
0.974232
1.57023
1.56474
1.64452
1.8438
1.88056
1.81204
1.83685
2.07175
2.56666
3.34291
4.12452
4.56631
4.60911
4.25372
3.91565
2.89234
1.46026
1.16837
1.20037
1.00757
0.97221
0.369568
-0.418693
0.173057
1.13579
1.75751
1.91061
2.09044
2.28779
2.27596
2.18102
2.21911
2.46181
3.00334
3.83456
4.61396
4.93788
4.77276
4.20959
3.63958
3.04851
1.50031
1.21879
1.25862
1.08311
1.06151
0.396655
-0.254301
0.38338
1.14318
1.71368
1.99348
2.2889
2.5239
2.50455
2.42312
2.48361
2.70121
3.1335
3.78595
4.43099
4.63733
4.30979
3.64621
2.9464
2.1194
1.19762
1.27052
1.29977
1.14534
1.13742
0.483857
0.0138993
0.547992
0.991103
1.43937
1.83506
2.23182
2.49716
2.51255
2.48006
2.53498
2.67143
2.85558
3.14636
3.51447
3.65339
3.33358
2.7231
2.09856
1.36786
0.969208
1.32494
1.34125
1.19119
1.15841
0.571074
0.309754
0.693708
0.78479
1.04544
1.50397
1.95695
2.23884
2.31576
2.346
2.39691
2.47303
2.47336
2.38248
2.39626
2.47816
2.33531
1.92274
1.47662
0.904263
0.681851
1.38449
1.3833
1.20612
1.16792
0.662841
0.595325
0.938806
0.783245
0.70868
1.05943
1.54449
1.92883
2.14378
2.2516
2.2995
2.38123
2.33523
2.05435
1.80338
1.78129
1.79381
1.59663
1.30449
0.793762
0.501138
1.45554
1.43831
1.18033
1.16416
0.760014
0.885335
1.36976
1.18966
0.75108
0.832156
1.2902
1.76838
2.12675
2.35794
2.44228
2.50927
2.39845
2.08445
1.79846
1.70043
1.76882
1.72283
1.52549
1.02124
0.564175
1.54358
1.5264
1.1401
1.07533
0.825414
1.14168
1.71171
1.64086
1.13823
1.00428
1.3426
1.79183
2.1771
2.50475
2.64857
2.64187
2.4689
2.20506
2.02651
1.97871
2.06958
2.0917
1.93671
1.39521
0.764228
1.64613
1.63681
1.17692
0.878911
0.695708
1.16943
1.8952
1.84741
1.26927
1.01295
1.26129
1.68679
2.08494
2.36931
2.50764
2.50795
2.42876
2.30329
2.24763
2.31906
2.48141
2.53478
2.37813
1.77516
0.964383
1.72486
1.67673
1.25589
0.691323
0.361245
0.905001
1.9247
1.90633
1.07661
0.718387
0.968521
1.37961
1.74207
1.92221
2.03476
2.13134
2.23972
2.29773
2.32721
2.49525
2.75419
2.85019
2.69835
2.0403
1.28332
0.877458
0.844445
0.574936
0.451142
0.534573
0.453855
0.153859
-0.140023
-0.257669
-0.263565
-0.177784
0.227302
0.639446
0.787917
0.970818
1.23762
1.46179
1.58734
1.63291
1.61791
1.57541
1.49328
1.45916
1.19725
1.18447
0.873837
0.824646
0.551865
0.486357
0.566702
0.426891
0.0205703
-0.381141
-0.531062
-0.547881
-0.506804
-0.273674
-0.0198161
0.159766
0.413906
0.765688
1.09197
1.33022
1.47684
1.53458
1.53793
1.48439
1.43694
1.16738
0.951132
0.874443
0.82258
0.560267
0.543762
0.597822
0.398738
-0.0942463
-0.603533
-0.92041
-1.09128
-1.27502
-1.4285
-1.33246
-1.04156
-0.602555
-0.0899875
0.395425
0.79759
1.09917
1.27707
1.35507
1.35199
1.31587
1.11422
0.639876
0.876676
0.823896
0.561239
0.558494
0.615066
0.376699
-0.160246
-0.747411
-1.23245
-1.64097
-2.15701
-2.59605
-2.57655
-2.17177
-1.57507
-0.952604
-0.382751
0.122709
0.543085
0.823216
0.96358
0.997794
0.974057
0.856129
0.232328
0.880964
0.83155
0.56726
0.558092
0.610606
0.347243
-0.200144
-0.845601
-1.47005
-2.09421
-2.82745
-3.30221
-3.18761
-2.67495
-2.05651
-1.50712
-1.01215
-0.527114
-0.0873781
0.22735
0.38144
0.386167
0.303137
0.265906
-0.19055
0.886469
0.839559
0.590311
0.567072
0.571407
0.297117
-0.264401
-1.01098
-1.72877
-2.41904
-3.07637
-3.35499
-3.13774
-2.66726
-2.20266
-1.85697
-1.52915
-1.15489
-0.800425
-0.561865
-0.487902
-0.587651
-0.788914
-0.692117
-0.683962
0.893515
0.841634
0.622253
0.600015
0.54704
0.25431
-0.374389
-1.25295
-2.02275
-2.52334
-2.81986
-2.90419
-2.76709
-2.49356
-2.23944
-2.09051
-1.94968
-1.74868
-1.5732
-1.52903
-1.64745
-1.8933
-2.11457
-1.77138
-1.15391
0.90205
0.844308
0.653757
0.638336
0.55719
0.254287
-0.500014
-1.4899
-2.1434
-2.27195
-2.25508
-2.36671
-2.4454
-2.38113
-2.28756
-2.28171
-2.31886
-2.32484
-2.40161
-2.62997
-2.9732
-3.26062
-3.2544
-2.54432
-1.52389
0.913554
0.856027
0.689002
0.694092
0.585151
0.242379
-0.611765
-1.55359
-1.92026
-1.74411
-1.69535
-1.9659
-2.19924
-2.25801
-2.26626
-2.357
-2.52703
-2.73851
-3.10604
-3.59438
-4.04032
-4.17925
-3.8008
-2.77816
-1.46182
0.926962
0.874981
0.724504
0.750596
0.633108
0.207441
-0.683467
-1.38778
-1.42515
-1.18067
-1.27023
-1.59788
-1.84609
-1.9545
-2.0436
-2.20052
-2.44945
-2.85237
-3.47126
-4.05944
-4.40068
-4.30745
-3.70511
-2.50602
-1.16444
0.942442
0.894918
0.757911
0.79434
0.70465
0.138647
-0.645021
-0.989748
-0.83736
-0.734434
-0.920621
-1.16134
-1.31604
-1.44405
-1.6157
-1.8124
-2.09855
-2.63009
-3.31434
-3.77076
-3.90502
-3.63236
-2.98118
-2.0134
-0.808216
0.958767
0.91217
0.795014
0.799775
0.691342
0.0615977
-0.451534
-0.467271
-0.309266
-0.401594
-0.579369
-0.66698
-0.715056
-0.856647
-1.059
-1.21827
-1.48544
-2.03272
-2.57249
-2.77534
-2.72083
-2.39113
-1.82382
-1.26589
-0.394432
0.977328
0.931382
0.820808
0.751437
0.56383
0.0511432
-0.130957
0.0348753
0.0640688
-0.161343
-0.254197
-0.177258
-0.136995
-0.263635
-0.405463
-0.458865
-0.668852
-1.13769
-1.43742
-1.39726
-1.23494
-0.94749
-0.596332
-0.358986
0.0168434
0.998132
0.952364
0.824644
0.684172
0.44694
0.110813
0.204539
0.440139
0.319138
0.060384
0.0652404
0.264587
0.373392
0.304167
0.283905
0.375981
0.246154
-0.119994
-0.219405
-0.0314138
0.165109
0.402705
0.530361
0.502382
0.330181
1.02267
0.976537
0.827017
0.66451
0.406101
0.199131
0.497641
0.775026
0.580106
0.367168
0.438586
0.673877
0.793494
0.789715
0.899282
1.13615
1.1222
0.854113
0.836328
1.03215
1.18108
1.35966
1.28407
1.14475
0.518877
1.05089
1.00476
0.841087
0.668595
0.394787
0.281363
0.744793
1.07563
0.91461
0.765838
0.844938
1.02808
1.09467
1.12875
1.32658
1.65536
1.77671
1.60373
1.57384
1.66446
1.68189
1.72853
1.52893
1.31316
0.547287
1.08296
1.04279
0.857858
0.665659
0.384923
0.356578
0.968697
1.356
1.27517
1.12763
1.16187
1.25445
1.25375
1.29718
1.51677
1.86996
2.09095
1.96778
1.84229
1.75271
1.59393
1.4681
1.22021
0.855813
0.43836
1.11705
1.08112
0.858882
0.674674
0.377227
0.42672
1.14744
1.54251
1.49563
1.2825
1.2695
1.30604
1.28517
1.33325
1.51581
1.82563
2.04807
1.84435
1.47271
1.15498
0.870608
0.678559
0.498177
0.272159
0.248154
1.15205
1.11825
0.83914
0.703648
0.412317
0.544164
1.27194
1.5688
1.48135
1.25635
1.22972
1.25906
1.27707
1.33842
1.44698
1.61416
1.68749
1.2884
0.627238
0.174755
-0.0598382
-0.149197
-0.159806
-0.225241
0.00598328
1.1878
1.15005
0.812424
0.727424
0.524208
0.749737
1.38876
1.50355
1.32536
1.13278
1.12075
1.19215
1.27068
1.36839
1.44442
1.4891
1.37379
0.7848
-0.0877555
-0.599613
-0.719892
-0.671059
-0.550709
-0.467988
-0.132796
1.2258
1.18119
0.773224
0.720931
0.670652
0.972442
1.51864
1.46542
1.16153
0.983281
1.02612
1.21642
1.39013
1.53228
1.60277
1.5779
1.37651
0.750725
-0.19527
-0.789179
-0.88564
-0.772767
-0.572326
-0.440011
-0.190597
1.2704
1.23707
0.721338
0.617655
0.663779
1.03699
1.65359
1.56749
1.1437
0.920532
0.999672
1.27075
1.53972
1.74989
1.82288
1.74966
1.50453
0.961525
0.171862
-0.456086
-0.59048
-0.472283
-0.242212
-0.14577
-0.105833
1.32663
1.3192
0.659499
0.421696
0.48117
0.98802
1.83579
1.86567
1.41715
1.14776
1.16485
1.33894
1.58762
1.79952
1.85615
1.75653
1.51025
1.09297
0.589562
0.124864
0.00703945
0.115728
0.32206
0.327139
0.153104
1.3992
1.39249
0.635887
0.166523
0.198851
0.953798
1.95884
2.0699
1.66223
1.3625
1.31517
1.43445
1.64779
1.78106
1.78048
1.63996
1.45984
1.22001
0.963063
0.758881
0.762118
0.898247
1.03471
0.886133
0.588578
1.47981
1.44656
0.758287
0.0587711
0.221333
1.27245
2.17902
2.12178
1.60508
1.2662
1.27119
1.454
1.58876
1.59856
1.53107
1.38902
1.28613
1.21179
1.116
1.1184
1.32379
1.56151
1.68224
1.3786
1.02646
0.838978
0.812712
0.574747
0.450151
0.46976
0.389306
0.0592067
-0.392893
-0.821452
-1.2238
-1.60611
-1.90171
-2.16363
-2.12851
-1.69033
-1.04749
-0.451448
9.26412e-05
0.305429
0.484681
0.592259
0.605034
0.662344
0.574803
0.828583
0.837402
0.802496
0.578806
0.47817
0.488599
0.369391
-0.0216346
-0.565326
-1.08671
-1.54081
-2.01609
-2.42712
-2.5887
-2.44554
-1.97796
-1.30742
-0.66396
-0.168271
0.17248
0.366299
0.470004
0.473159
0.481017
0.396848
0.484405
0.83945
0.807248
0.590701
0.514332
0.49377
0.291969
-0.171191
-0.732062
-1.30904
-1.88553
-2.54107
-3.10682
-3.29333
-3.07827
-2.51026
-1.75275
-1.05656
-0.527921
-0.160168
0.044914
0.128187
0.153321
0.145327
0.187384
0.0907047
0.842907
0.807686
0.60071
0.537259
0.499838
0.228173
-0.288828
-0.831511
-1.38695
-2.03305
-2.81043
-3.44829
-3.66174
-3.42455
-2.83387
-2.11041
-1.48583
-1.01004
-0.658945
-0.444388
-0.374424
-0.316616
-0.312566
-0.157252
-0.334246
0.848398
0.809598
0.61403
0.570359
0.50954
0.200897
-0.333888
-0.859632
-1.34315
-1.96164
-2.72128
-3.31117
-3.51168
-3.31157
-2.82766
-2.29899
-1.88213
-1.54217
-1.26116
-1.0767
-1.02363
-0.990937
-1.02107
-0.755485
-0.728415
0.856086
0.8161
0.629168
0.592448
0.509611
0.186545
-0.311161
-0.804736
-1.26963
-1.75333
-2.3348
-2.83869
-3.08099
-3.02087
-2.76785
-2.54243
-2.3948
-2.2309
-2.06629
-1.96954
-1.98911
-2.04593
-2.11752
-1.67269
-1.12789
0.866684
0.827895
0.650748
0.611611
0.508818
0.171579
-0.310368
-0.778865
-1.14655
-1.42186
-1.82243
-2.34221
-2.72742
-2.84622
-2.86471
-2.96806
-3.09681
-3.14067
-3.14041
-3.18732
-3.34431
-3.46929
-3.48786
-2.77938
-1.65661
0.879665
0.84657
0.682999
0.645408
0.511324
0.145166
-0.333927
-0.741541
-0.950612
-1.06906
-1.4384
-2.07237
-2.56875
-2.82388
-3.11839
-3.52424
-3.90135
-4.15748
-4.36353
-4.606
-4.9004
-4.96394
-4.75055
-3.72732
-2.14189
0.895087
0.869945
0.717284
0.684557
0.510419
0.12394
-0.309313
-0.616585
-0.734997
-0.841204
-1.28133
-1.94006
-2.43138
-2.79746
-3.31482
-3.90629
-4.44485
-4.90441
-5.36502
-5.8185
-6.15751
-6.03851
-5.53151
-4.16756
-2.40906
0.911434
0.892335
0.750101
0.709708
0.512608
0.135142
-0.224175
-0.448759
-0.572022
-0.75388
-1.22496
-1.77913
-2.20822
-2.66191
-3.28268
-3.91853
-4.54077
-5.19867
-5.87869
-6.41457
-6.65901
-6.33816
-5.64519
-4.14872
-2.06433
0.928847
0.913353
0.782243
0.723094
0.513876
0.168658
-0.0854454
-0.262922
-0.453499
-0.725888
-1.14445
-1.55109
-1.90978
-2.39306
-3.03829
-3.70057
-4.39819
-5.15638
-5.8496
-6.26874
-6.33601
-5.8136
-4.99242
-3.68604
-1.65882
0.946426
0.935374
0.816312
0.719962
0.492363
0.229009
0.108785
-0.0711008
-0.355818
-0.673819
-0.998834
-1.27648
-1.58485
-2.02035
-2.61121
-3.2783
-4.00895
-4.72999
-5.24886
-5.44381
-5.32038
-4.68021
-3.84487
-2.85901
-1.23702
0.964759
0.95778
0.843892
0.69006
0.464921
0.341447
0.313288
0.0869355
-0.254355
-0.540243
-0.767073
-0.951503
-1.22314
-1.53967
-1.95553
-2.5659
-3.28231
-3.87943
-4.17528
-4.17328
-3.94064
-3.30627
-2.6398
-1.9647
-0.757121
0.983302
0.979846
0.855432
0.654584
0.477816
0.486138
0.491582
0.217585
-0.139889
-0.341698
-0.463993
-0.550906
-0.777657
-0.954185
-1.12893
-1.60014
-2.28554
-2.77954
-2.92274
-2.81514
-2.56452
-1.99405
-1.48665
-1.12222
-0.334316
1.00298
1.00131
0.850464
0.628951
0.53114
0.632823
0.651351
0.36059
0.0170689
-0.0955233
-0.126902
-0.119659
-0.283169
-0.342793
-0.315973
-0.570249
-1.20222
-1.69985
-1.82283
-1.69905
-1.49563
-1.03889
-0.578037
-0.486457
-0.00754738
1.02383
1.02659
0.839147
0.621888
0.598217
0.752989
0.797506
0.550419
0.252645
0.187503
0.19358
0.250563
0.164848
0.172769
0.305314
0.257574
-0.270564
-0.86155
-1.08999
-1.03644
-0.891548
-0.507936
-0.143849
-0.125142
0.0881062
1.04624
1.05697
0.838428
0.6233
0.655344
0.839979
0.939006
0.762469
0.509499
0.413428
0.418639
0.495115
0.485193
0.513441
0.671967
0.745126
0.314967
-0.426656
-0.85727
-0.913205
-0.799313
-0.481823
-0.187312
-0.117526
0.076138
1.06925
1.08908
0.835171
0.625423
0.685519
0.902606
1.0569
0.935878
0.69174
0.525581
0.513881
0.614904
0.660765
0.706152
0.810103
0.862767
0.434355
-0.48483
-1.17287
-1.33267
-1.20783
-0.906885
-0.589188
-0.386021
-0.0347255
1.0921
1.11678
0.803905
0.60643
0.697496
0.965584
1.14696
1.05704
0.8276
0.620062
0.584289
0.680524
0.739535
0.790799
0.809581
0.704566
0.199694
-0.828357
-1.68028
-1.87404
-1.66797
-1.30866
-0.93822
-0.657543
-0.182033
1.11453
1.13745
0.755439
0.591346
0.746618
1.04971
1.25009
1.1501
0.918882
0.710692
0.696289
0.792943
0.831905
0.852605
0.796067
0.54506
-0.0191934
-1.00568
-1.90009
-2.16485
-1.93735
-1.52377
-1.08689
-0.733154
-0.248677
1.13726
1.16245
0.705348
0.56738
0.818999
1.14908
1.37445
1.24675
0.990281
0.777395
0.836209
0.97833
1.02182
1.00841
0.901523
0.599575
0.0518062
-0.78673
-1.68636
-2.10666
-1.98556
-1.59291
-1.10449
-0.722702
-0.239228
1.1606
1.21316
0.660772
0.4411
0.765137
1.20506
1.5419
1.41666
1.11187
0.872437
0.991494
1.23425
1.34407
1.29376
1.09797
0.752365
0.252226
-0.400025
-1.15634
-1.68395
-1.72261
-1.4195
-0.957648
-0.596172
-0.200831
1.1847
1.24396
0.587693
0.268935
0.606775
1.19735
1.68851
1.61639
1.26328
1.03152
1.15188
1.43075
1.60136
1.53545
1.22705
0.783877
0.277765
-0.25929
-0.805443
-1.24883
-1.3301
-1.06764
-0.639777
-0.333577
-0.103879
1.2163
1.21043
0.497856
0.127423
0.535358
1.25079
1.86074
1.86818
1.4732
1.24538
1.24988
1.41705
1.52787
1.44078
1.13624
0.738854
0.308825
-0.118508
-0.513655
-0.812872
-0.838877
-0.57804
-0.195345
0.0130521
0.185923
1.26268
1.20741
0.590927
0.155264
0.827809
1.7199
2.17277
2.0387
1.62532
1.39075
1.28901
1.39774
1.41079
1.28472
1.03888
0.725003
0.400741
0.135222
-0.146034
-0.349416
-0.260195
0.0407577
0.379263
0.447058
0.589078
0.79416
0.763266
0.542069
0.36826
0.29084
0.116082
-0.185676
-0.592487
-1.07526
-1.68388
-2.53621
-3.49294
-4.03482
-3.96185
-3.43853
-2.69008
-1.91807
-1.26541
-0.785732
-0.491625
-0.346542
-0.327352
-0.290103
-0.213973
0.285533
0.794535
0.758027
0.550777
0.365465
0.261963
0.0786644
-0.241279
-0.649377
-1.16284
-1.79445
-2.67073
-3.62294
-4.10948
-4.06191
-3.63388
-2.97349
-2.24378
-1.59166
-1.08869
-0.753082
-0.570609
-0.499279
-0.450149
-0.300399
0.0120849
0.798082
0.766725
0.555842
0.36874
0.256117
0.0410985
-0.315797
-0.687407
-1.11761
-1.69999
-2.55546
-3.5107
-4.11244
-4.24997
-3.96344
-3.37499
-2.68772
-2.06248
-1.57113
-1.22803
-1.03461
-0.887137
-0.781295
-0.496055
-0.310649
0.80326
0.768872
0.558006
0.388587
0.278256
0.0263598
-0.360362
-0.703708
-1.0392
-1.50119
-2.2526
-3.17803
-3.8769
-4.18026
-4.0538
-3.59639
-3.04733
-2.53519
-2.10089
-1.76321
-1.55956
-1.36408
-1.18039
-0.773994
-0.602286
0.810651
0.770528
0.565068
0.42939
0.318511
0.0345145
-0.353926
-0.667696
-0.93006
-1.28466
-1.91569
-2.78509
-3.54522
-3.98558
-4.05552
-3.81855
-3.47298
-3.08291
-2.6843
-2.34208
-2.12061
-1.91575
-1.69163
-1.2219
-0.885208
0.820883
0.779674
0.575176
0.467851
0.357895
0.0627333
-0.306175
-0.587932
-0.787327
-1.08084
-1.68071
-2.55534
-3.36447
-3.93228
-4.25873
-4.32961
-4.19874
-3.88594
-3.49278
-3.14365
-2.92145
-2.72225
-2.45919
-1.82399
-1.15259
0.834378
0.796071
0.593555
0.502629
0.387197
0.0954306
-0.245285
-0.476239
-0.621703
-0.938242
-1.65233
-2.61057
-3.44736
-4.16961
-4.8263
-5.2502
-5.31921
-5.06678
-4.69027
-4.3554
-4.15059
-3.91485
-3.52347
-2.55414
-1.38685
0.850363
0.819148
0.62145
0.541524
0.41287
0.122864
-0.171202
-0.353357
-0.529988
-0.992375
-1.84814
-2.79924
-3.64608
-4.63965
-5.69028
-6.41283
-6.64819
-6.49938
-6.20867
-5.94597
-5.73505
-5.36711
-4.76341
-3.30547
-1.65971
0.868218
0.843508
0.652244
0.577127
0.445915
0.170286
-0.0756762
-0.274488
-0.586091
-1.18912
-2.01081
-2.81475
-3.75613
-5.11926
-6.45715
-7.30321
-7.6468
-7.66894
-7.57808
-7.43768
-7.14765
-6.58275
-5.7581
-3.86196
-2.17421
0.886508
0.866308
0.685424
0.607926
0.481924
0.233986
0.00382646
-0.262801
-0.682137
-1.28792
-1.95735
-2.61939
-3.71166
-5.32991
-6.69666
-7.51231
-7.9565
-8.21995
-8.37866
-8.31925
-7.86939
-7.0517
-6.05192
-4.36963
-3.71769
0.905021
0.887424
0.719652
0.633073
0.50588
0.30519
0.0950001
-0.204165
-0.656191
-1.23916
-1.79021
-2.37025
-3.49115
-5.11662
-6.4499
-7.31762
-7.87055
-8.26905
-8.50546
-8.40229
-7.76964
-6.66456
-5.52328
-3.8219
-2.18949
0.92274
0.907571
0.752258
0.656132
0.522816
0.395533
0.239825
-0.0551262
-0.540934
-1.13125
-1.61799
-2.13561
-3.10665
-4.52512
-5.89315
-6.86806
-7.45405
-7.79556
-7.90457
-7.63903
-6.879
-5.6511
-4.46291
-2.92356
-1.04836
0.939818
0.926793
0.778139
0.664037
0.538497
0.512235
0.420722
0.113222
-0.419429
-1.01481
-1.44637
-1.89082
-2.6522
-3.67723
-4.94751
-5.97296
-6.51507
-6.73092
-6.67291
-6.27534
-5.48888
-4.34943
-3.32695
-2.00294
-0.64057
0.955516
0.945081
0.791672
0.648987
0.561137
0.652374
0.576531
0.183953
-0.390557
-0.925996
-1.26297
-1.606
-2.19564
-2.76106
-3.65297
-4.64492
-5.18027
-5.30704
-5.14078
-4.71841
-3.99993
-3.06174
-2.3304
-1.24442
-0.369648
0.970304
0.961864
0.788317
0.617695
0.597769
0.759191
0.617782
0.129946
-0.423936
-0.808967
-1.01959
-1.26511
-1.7345
-1.99618
-2.37979
-3.17478
-3.78315
-3.92047
-3.72727
-3.33879
-2.72487
-1.99966
-1.48838
-0.786606
-0.155173
0.98411
0.975015
0.775939
0.586171
0.633491
0.779857
0.570867
0.0768433
-0.368837
-0.584661
-0.719626
-0.886151
-1.29008
-1.41645
-1.48699
-1.98407
-2.60691
-2.84323
-2.71161
-2.38075
-1.88777
-1.31124
-0.910692
-0.493447
0.0043009
0.998073
0.986356
0.760965
0.553566
0.638164
0.747551
0.535771
0.109981
-0.212776
-0.311574
-0.427922
-0.553313
-0.889898
-1.01747
-1.00541
-1.27957
-1.86102
-2.20707
-2.16811
-1.89811
-1.49755
-1.01339
-0.654681
-0.335391
0.00834724
1.01287
1.00397
0.745455
0.504363
0.628396
0.742112
0.565627
0.238976
-0.0141777
-0.0813191
-0.221009
-0.352934
-0.616476
-0.776149
-0.834124
-1.07395
-1.60997
-2.04751
-2.12069
-1.89665
-1.55495
-1.14268
-0.789856
-0.466903
-0.123224
1.02884
1.02987
0.719603
0.427391
0.635688
0.797002
0.668648
0.453211
0.227457
0.128689
-0.0668301
-0.237518
-0.461306
-0.622073
-0.781475
-1.07647
-1.59935
-2.0913
-2.24748
-2.05786
-1.71258
-1.31751
-0.980359
-0.689019
-0.293974
1.04526
1.0617
0.701826
0.362817
0.65945
0.887558
0.811006
0.665034
0.461299
0.294249
0.0403099
-0.144511
-0.326155
-0.46236
-0.659038
-0.975148
-1.44762
-1.95272
-2.20038
-2.08976
-1.76692
-1.37623
-1.01481
-0.733861
-0.321027
1.06104
1.09098
0.696152
0.329423
0.675872
0.951304
0.960785
0.84992
0.661483
0.43677
0.17948
-0.00497025
-0.139212
-0.244297
-0.461116
-0.766568
-1.13407
-1.54718
-1.85665
-1.90477
-1.70433
-1.36596
-0.980201
-0.647524
-0.260894
1.07449
1.10629
0.680959
0.284373
0.635443
0.96195
1.04197
0.939112
0.749279
0.526004
0.340861
0.211928
0.109915
-0.00783653
-0.282717
-0.630985
-0.963457
-1.26072
-1.51457
-1.64128
-1.55982
-1.29758
-0.918359
-0.558864
-0.227524
1.08497
1.09571
0.640208
0.289444
0.588892
0.950519
1.13572
1.09972
0.938158
0.76445
0.643957
0.544399
0.401264
0.197513
-0.150428
-0.583534
-0.999069
-1.30904
-1.50931
-1.6084
-1.53475
-1.26676
-0.875598
-0.48869
-0.170939
1.09586
1.04113
0.590734
0.326023
0.575253
0.993846
1.37816
1.45353
1.25331
1.05194
0.897386
0.696539
0.421239
0.0922098
-0.280631
-0.658567
-1.01982
-1.30135
-1.48711
-1.57722
-1.49308
-1.20834
-0.794441
-0.395257
-0.0629999
1.11854
1.03986
0.696727
0.441632
0.773375
1.32592
1.74899
1.74947
1.44615
1.1597
0.876036
0.585328
0.248008
-0.0596221
-0.315971
-0.577589
-0.835893
-1.00424
-1.15328
-1.266
-1.16407
-0.865143
-0.455657
-0.189138
0.162176
0.739732
0.691797
0.47679
0.268907
0.148876
-0.0503486
-0.321311
-0.603752
-0.902871
-1.39926
-2.21421
-3.2244
-3.90936
-3.97943
-3.62188
-3.05076
-2.4037
-1.80669
-1.2767
-0.887848
-0.699058
-0.61346
-0.488737
-0.33619
0.0432694
0.742061
0.690627
0.481284
0.259686
0.11074
-0.0774875
-0.331638
-0.591469
-0.894965
-1.39921
-2.23756
-3.38701
-4.23599
-4.49445
-4.31402
-3.85088
-3.17682
-2.4306
-1.71492
-1.20674
-0.945356
-0.802179
-0.651067
-0.414134
-0.172743
0.747388
0.702875
0.490225
0.263734
0.104966
-0.0820552
-0.346978
-0.603735
-0.853798
-1.26692
-2.05304
-3.24822
-4.31428
-4.89204
-4.97839
-4.64195
-3.96987
-3.13722
-2.30872
-1.70876
-1.3817
-1.13146
-0.881923
-0.504577
-0.381768
0.755176
0.711862
0.491954
0.288969
0.139294
-0.0691827
-0.36819
-0.653734
-0.893687
-1.24303
-1.95438
-3.10331
-4.23283
-4.97003
-5.21556
-4.98686
-4.42289
-3.68724
-2.90583
-2.25785
-1.86292
-1.49963
-1.10789
-0.600645
-0.509074
0.765547
0.720148
0.499033
0.329672
0.19728
-0.0423299
-0.370251
-0.668125
-0.910009
-1.27893
-2.00719
-3.14141
-4.29632
-5.12058
-5.51233
-5.43204
-5.00349
-4.34764
-3.58027
-2.84985
-2.33561
-1.89207
-1.37507
-0.806454
-0.653999
0.778957
0.733916
0.513982
0.373469
0.249187
-0.0218151
-0.365181
-0.648753
-0.888492
-1.33264
-2.18024
-3.41133
-4.65811
-5.59841
-6.19275
-6.32427
-6.01829
-5.35532
-4.49023
-3.64606
-2.98819
-2.43963
-1.81468
-1.09583
-0.797483
0.795434
0.752241
0.540047
0.421349
0.285569
-0.00530619
-0.331374
-0.56457
-0.825494
-1.40817
-2.4881
-3.89819
-5.31663
-6.51629
-7.39722
-7.7176
-7.45356
-6.69801
-5.67606
-4.69793
-3.89983
-3.19379
-2.39895
-1.45657
-0.931816
0.814367
0.776693
0.57845
0.467299
0.314329
0.0156525
-0.262137
-0.454065
-0.813254
-1.59131
-2.83164
-4.39066
-6.17585
-7.85797
-9.06711
-9.47811
-9.16378
-8.30183
-7.14475
-6.01356
-5.05694
-4.17283
-3.13712
-1.86948
-1.00317
0.834829
0.802598
0.623219
0.507711
0.345435
0.0483076
-0.195061
-0.444115
-0.960911
-1.80314
-2.946
-4.60599
-7.00799
-9.24905
-10.6135
-10.9732
-10.5842
-9.7098
-8.54849
-7.32446
-6.17037
-5.06859
-3.82801
-2.1907
-0.996586
0.855378
0.828007
0.668996
0.557395
0.371973
0.0726275
-0.186257
-0.532294
-1.12428
-1.87032
-2.83533
-4.50891
-7.48061
-10.0428
-11.2732
-11.4756
-11.0868
-10.382
-9.43309
-8.24966
-6.87634
-5.46179
-4.07133
-2.27586
-1.07841
0.8752
0.850615
0.714524
0.606467
0.391361
0.112444
-0.130523
-0.531803
-1.18332
-1.85551
-2.70697
-4.22726
-7.30459
-9.91791
-11.0341
-11.1528
-10.8061
-10.2976
-9.57445
-8.45004
-6.89025
-5.15392
-3.70966
-2.00694
-0.715707
0.893062
0.871904
0.756776
0.644894
0.423303
0.233323
0.0444788
-0.425095
-1.18553
-1.831
-2.56627
-3.78785
-6.38534
-8.94175
-10.1668
-10.3399
-10.0622
-9.58891
-8.87052
-7.72698
-6.13431
-4.33323
-2.95062
-1.54878
-0.522836
0.908633
0.89141
0.784514
0.656172
0.487956
0.440185
0.257442
-0.319839
-1.19367
-1.82756
-2.36689
-3.31874
-5.16037
-7.33763
-8.71476
-9.01995
-8.76238
-8.23696
-7.45976
-6.32823
-4.8652
-3.33056
-2.19898
-1.02644
-0.385091
0.920954
0.906636
0.792832
0.635138
0.574537
0.644517
0.354977
-0.359091
-1.27756
-1.83864
-2.20001
-2.96583
-4.20802
-5.54893
-6.79553
-7.27006
-7.03135
-6.46677
-5.69571
-4.68559
-3.48614
-2.35646
-1.59865
-0.678285
-0.257892
0.93027
0.914665
0.772703
0.585927
0.627501
0.709158
0.283336
-0.509875
-1.34257
-1.77136
-2.02778
-2.65848
-3.5269
-4.17919
-4.88118
-5.36239
-5.22143
-4.70614
-4.03108
-3.208
-2.30186
-1.50976
-1.10976
-0.492672
-0.210395
0.936757
0.913392
0.727717
0.522664
0.616411
0.640538
0.15241
-0.609515
-1.23831
-1.55401
-1.775
-2.30038
-2.94305
-3.24873
-3.45979
-3.71775
-3.66122
-3.26639
-2.71491
-2.0686
-1.42308
-0.8949
-0.71272
-0.360145
-0.150934
0.942257
0.908864
0.674948
0.461986
0.573206
0.544527
0.0800133
-0.558506
-0.947782
-1.22067
-1.49868
-1.94638
-2.46967
-2.65013
-2.61637
-2.61623
-2.57957
-2.2957
-1.84992
-1.35046
-0.891291
-0.533488
-0.441856
-0.251838
-0.104754
0.948757
0.907648
0.62117
0.413629
0.56479
0.510991
0.127428
-0.347825
-0.598765
-0.908939
-1.30702
-1.71453
-2.14137
-2.28167
-2.2032
-2.1352
-2.05431
-1.83454
-1.46354
-1.06673
-0.760751
-0.524756
-0.442647
-0.371713
-0.191328
0.958097
0.919132
0.567984
0.372544
0.590336
0.571996
0.268649
-0.0403208
-0.285763
-0.693005
-1.22202
-1.59778
-1.90902
-1.97259
-1.91925
-1.86918
-1.79635
-1.6011
-1.3054
-0.991008
-0.789976
-0.647816
-0.590075
-0.527727
-0.248825
0.970439
0.947778
0.562694
0.329093
0.593461
0.675795
0.459837
0.269415
-0.0196853
-0.582491
-1.24045
-1.5692
-1.74599
-1.68421
-1.60461
-1.54019
-1.45475
-1.30835
-1.11202
-0.899761
-0.773896
-0.690131
-0.618387
-0.497767
-0.211446
0.984004
0.974037
0.65263
0.315994
0.527917
0.716835
0.623425
0.466341
0.129648
-0.543975
-1.24669
-1.55403
-1.59394
-1.44984
-1.34099
-1.26384
-1.14256
-0.987803
-0.849467
-0.745855
-0.69022
-0.641359
-0.547693
-0.380106
-0.162909
0.996542
0.998516
0.762765
0.321784
0.472261
0.686217
0.655205
0.502133
0.15144
-0.477106
-1.11052
-1.44391
-1.47941
-1.3322
-1.20315
-1.12209
-1.01831
-0.857024
-0.708667
-0.624621
-0.598538
-0.567617
-0.467277
-0.248966
-0.0953934
1.00687
1.00722
0.813922
0.388421
0.432194
0.576197
0.658604
0.639164
0.391276
-0.11479
-0.685354
-1.11494
-1.35262
-1.35139
-1.26643
-1.17958
-1.09658
-0.969896
-0.840033
-0.754767
-0.694384
-0.608862
-0.47184
-0.222532
-0.00882846
1.01675
0.978087
0.83132
0.507449
0.329525
0.413391
0.798902
0.96293
0.745042
0.278763
-0.355612
-0.967788
-1.38524
-1.5356
-1.51685
-1.39062
-1.2125
-1.00999
-0.87557
-0.824319
-0.771783
-0.655565
-0.463562
-0.209124
0.0548315
1.03218
0.996773
0.926167
0.684538
0.390633
0.527551
1.11393
1.26922
0.89632
0.302999
-0.503465
-1.30264
-1.80287
-1.90934
-1.7423
-1.46587
-1.17433
-0.892772
-0.727114
-0.688754
-0.622018
-0.488463
-0.266932
-0.0569125
0.196303
0.686877
0.633028
0.412305
0.183749
0.0305383
-0.149611
-0.393122
-0.60424
-0.757197
-0.995529
-1.46404
-2.04053
-2.57901
-2.81016
-2.69588
-2.41101
-2.21313
-2.09575
-1.65761
-1.12692
-0.796884
-0.615896
-0.360342
-0.106993
0.0171603
0.690171
0.634126
0.412449
0.179139
0.0102647
-0.161586
-0.394774
-0.625209
-0.799788
-1.08596
-1.70342
-2.57685
-3.42905
-3.88252
-3.89499
-3.61911
-3.1894
-2.61742
-1.82471
-1.16983
-0.836071
-0.653632
-0.439101
-0.301834
-0.242087
0.696805
0.644
0.425723
0.190934
0.0045762
-0.181672
-0.427915
-0.707223
-0.92629
-1.25534
-1.99006
-3.13918
-4.325
-5.09493
-5.32083
-5.07445
-4.37021
-3.23976
-1.99925
-1.21284
-0.873912
-0.678122
-0.516376
-0.391868
-0.38728
0.706897
0.6563
0.437355
0.216533
0.0240062
-0.196641
-0.485909
-0.842667
-1.18625
-1.62716
-2.4441
-3.64902
-4.84179
-5.67431
-5.99905
-5.79614
-5.03969
-3.75756
-2.35517
-1.43004
-1.01372
-0.751391
-0.544199
-0.31479
-0.353715
0.720189
0.67029
0.451074
0.25667
0.0670534
-0.186767
-0.512911
-0.929551
-1.41314
-2.05617
-3.08586
-4.37052
-5.43507
-6.13181
-6.42426
-6.24118
-5.53824
-4.2978
-2.86605
-1.77897
-1.198
-0.818086
-0.520501
-0.232909
-0.338031
0.736878
0.689026
0.469839
0.294242
0.102737
-0.180985
-0.534954
-0.948857
-1.52137
-2.48331
-3.95712
-5.49917
-6.59874
-7.24379
-7.48935
-7.23372
-6.48288
-5.22455
-3.6869
-2.36501
-1.51442
-0.927038
-0.535885
-0.12764
-0.238926
0.756539
0.711667
0.501359
0.331728
0.124654
-0.186425