/*--------------------------------*- C++ -*----------------------------------*\
  =========                 |
  \\      /  F ield         | OpenFOAM: The Open Source CFD Toolbox
   \\    /   O peration     | Website:  https://openfoam.org
    \\  /    A nd           | Version:  11
     \\/     M anipulation  |
\*---------------------------------------------------------------------------*/
FoamFile
{
    format      ascii;
    class       surfaceScalarField;
    location    "50";
    object      phi;
}
// * * * * * * * * * * * * * * * * * * * * * * * * * * * * * * * * * * * * * //

dimensions      [0 3 -1 0 0 0 0];

internalField   nonuniform List<scalar> 
49858
(
3083.56
58.1871
127.748
3375.15
-101.151
170.257
3518.04
-103.719
294.205
3559.14
-125.656
410.615
3523.75
-109.993
510.094
3324.56
23.7792
615.846
2989.5
163.643
759.628
2708.3
90.7164
908.142
2950.95
-38.3827
588.292
2545.46
794.244
383.285
70.6727
1459.23
1838.44
-1668.12
-1307.17
3534.2
-1873.28
-3192.46
3748.27
-1599.23
-3330.06
3319.02
-888.059
-3194.96
2680.4
177.546
-2969.72
2079.06
1120.62
-2502.13
1738.3
1593.02
-1791.71
1487.96
1500.8
-952.809
1202.9
947.443
-377.475
1062.59
241.744
-288.996
1141.29
-113.037
-685.161
1156
179.705
-760.161
543.801
1918.05
-1756.53
31.4045
-6240.96
811.838
3171.34
24.4507
127.402
3448.15
-172.43
164.484
3604.4
-196.302
280.453
3641.51
-212.028
381.111
3628.18
-215.621
482.992
3518.99
-85.0165
646.309
3114.02
260.834
823.618
2733.18
40.9945
978.744
2997.72
-603.415
997.676
1897.29
1081.85
1480.47
252.42
1175.24
2528.7
-206.082
-4977.13
4417.8
45.9119
-7602.88
4359.93
783.547
-7798.45
3860.99
1661.31
-7330.04
3345
2366.19
-6540.35
2934.18
2733.14
-5432.24
2642.98
2564.99
-3942.72
2404.64
1650.46
-2091.65
2136.14
83.1702
-483.054
1771.33
-1139.51
-124.913
1194.02
-981.244
-1368.87
664.134
157.362
-2758.93
937.828
2321.7
-5361.46
1470.84
-9765.98
1662.58
3152.15
15.2564
127.346
3407.38
-244.019
159.386
3570.22
-311.208
264.187
3639.98
-349.301
368.808
3653.39
-399.051
494.084
3540.56
-235.189
655.031
3199.89
235.066
804.025
2925.27
-196.711
952.819
3072.26
-1194.67
942.223
1781.51
1236.24
1555.16
1354.6
-1708.51
3537.77
1307.33
-9388.22
4586.36
1607.34
-11870.3
4061.17
2257.61
-11725.2
3347.87
3010.09
-10782.6
2751.63
3598.24
-9479.75
2393.88
3755.52
-7826.14
2277.71
3178.82
-5655.66
2326.8
1755.81
-3055.47
2400.59
171.996
-1190.98
2283.29
-309.72
-1597.91
1916.21
241.382
-3764.5
1792.83
1166.34
-5901.16
2167.85
2642.44
-9156.96
2294.15
-12288
1908.6
3140.09
6.68912
128.381
3414.53
-308.267
152.966
3593.87
-431.511
257.416
3686.92
-487.564
354.516
3718.2
-586.345
471.638
3628.29
-409.823
624.332
3454.51
20.8961
755.822
3335.78
-648.473
859.659
3239.2
-1309.3
605.704
2254.99
770.364
1688.24
2503.97
-5779.21
3900.77
2457.27
-13137
3828.96
2662.85
-15044.2
2988.14
3236.16
-14468.5
2185.9
3914.84
-13081.5
1640.52
4396.26
-11419.3
1475.27
4320.71
-9399.41
1664.34
3351.11
-6788
2105.13
1667.02
-3951.7
2558.07
499.431
-2783.66
2708.76
590.626
-4362.7
2619.46
1160.7
-7038.99
2650.84
1788.7
-9406.73
2842.37
2660.08
-12589.3
2545.06
-14082.6
1818.38
3128.48
19.0963
129.235
3420.53
-440.88
144.903
3614.51
-602.575
252.891
3727.38
-689.029
341.243
3794.03
-818.111
430.481
3765.18
-648.916
549.649
3742.52
-368.879
671.92
3746.44
-1155.83
720.952
3428.43
-1182.03
413.879
3150.1
-962.691
2100.12
3397.17
-9381.32
3389.87
3211.74
-15536.1
2603.72
3332.12
-16722.9
1572.47
3832.54
-15767.7
815.574
4431.51
-14144.6
485.098
4793.26
-12432.3
663.208
4484.62
-10335.2
1253.87
3234.94
-7641.37
2096.63
1649.21
-5246.71
2845.65
1069.62
-5419.95
3149.94
1437.4
-7961.18
3152.1
1887.5
-10700
3136.85
2229.16
-12913.9
3109.9
2606.93
-15416
2420.64
-15209.6
1507.75
3113.32
31.8533
127.629
3402.07
-552.366
139.835
3593.32
-756.889
251.436
3722.22
-887.562
342.667
3831.28
-1075.21
417.446
3895.08
-937.507
509.697
3977.45
-879.662
651.372
4052.53
-1654.92
567.595
3631.34
-1052.02
354.16
3858.61
-3471.11
2282.11
3860.09
-11836.6
2422.68
3563.66
-16471.5
1189.01
3640.8
-17003.2
165.48
4094.62
-15917.8
-315.029
4618.83
-14384.7
-274.98
4861.64
-12938.7
277.419
4367.64
-11054
1217.82
3041.77
-8668.61
2339.6
1859.68
-7333.51
3216.8
1787.97
-8915.75
3488.93
2198.85
-11874.6
3411.38
2461.56
-14315.6
3264.39
2517.28
-16046.4
3005.32
2525.31
-17463.7
1996.36
-15668.2
1078.41
3120.6
49.6576
123.258
3381.32
-689.858
138.109
3557.26
-951.329
246.67
3695.66
-1146.57
337.402
3835.28
-1418.93
410.726
3978.35
-1377.59
500.396
4147.33
-1510.3
612.65
4257.62
-2066.42
408.925
3943.82
-1308
654.257
4154.03
-5656.79
1988.33
3891.61
-12830.6
1256.21
3559.64
-16096.4
-48.967
3650.71
-16349
-748.718
4085.45
-15481.5
-859.543
4562.67
-14339.6
-498.43
4718.01
-13347.2
273.619
4139.43
-11850.6
1386.31
2961.41
-10125.1
2628.81
2292.61
-10161.5
3462.35
2512.89
-12730.2
3533.95
2820.28
-15540.9
3290.36
2867.33
-17408
2975.49
2667.85
-18402.3
2504.05
2444.38
-18584.4
1315.13
-15495.3
582.665
3133.83
43.404
115.747
3357.45
-785.813
140.845
3523.59
-1122.72
246.049
3668.97
-1390.59
334.627
3809.33
-1739.28
416.834
3991.09
-1843.08
506.886
4240.64
-2054.51
480.696
4326.67
-2322.35
258.252
4146.22
-2096.15
975.048
4056.73
-7058.09
1464.28
3609
-12687.3
272.722
3295.47
-15148.8
-664.107
3428.89
-15511.4
-979.48
3889.72
-15012.5
-904.004
4378.29
-14297.3
-480.057
4506.88
-13744.9
318.578
3943.49
-12726
1477.72
3053.47
-11946
2724.1
2816.78
-13288.5
3340.39
3123.07
-16198.3
3108.56
3255.92
-18439.6
2692.02
3089.99
-19553.4
2230.88
2708.07
-19718.4
1626.81
2396.28
-18767.1
445.099
-14793.1
23.6505
3147.67
43.2099
107.128
3326.09
-919.009
149.144
3483.02
-1346.13
253.42
3623.4
-1714.42
348.222
3730.27
-2137.42
457.16
3953.98
-2442.74
534.401
4326.27
-2612.85
317.729
4335.08
-2403.04
208.131
4139.76
-2845.66
1037.17
3727.57
-7441.42
829.663
3138.58
-11893.5
-183.543
2841.9
-14178.5
-655.985
3055.02
-14832.6
-869.172
3607.78
-14638.7
-884.394
4145.02
-14233.2
-547.606
4272.4
-14021.4
196.875
3789.46
-13553.9
1345.8
3224.03
-13827.5
2463.59
3269.08
-16036
2689.14
3529.9
-18645
2153.5
3475.55
-20073.7
1638.39
3145.93
-20392.1
1121.26
2679.98
-19808.6
516.308
2425.96
-18043
-493.112
-13625.3
-620.401
3150.1
25.775
98.0231
3276.64
-1014
167.006
3392.62
-1570.2
279.009
3518.71
-2048.78
392.436
3622.49
-2601.1
535.756
3940.18
-3135.33
560.087
4481.29
-3138.86
153.933
4388.97
-2366.83
151.63
4043.69
-3265.66
806.284
3312.3
-7018.96
324.891
2545.22
-10911.4
-192.246
2272.12
-13425.3
-441.18
2630.34
-14302.3
-826.001
3310.4
-14212
-1018.74
3884.73
-13944
-765.058
4001.63
-13963.9
-84.4784
3629.56
-14087
971.139
3354.29
-15281.3
1761.32
3539.84
-17730.6
1509.29
3696.83
-19630.5
801.717
3500.74
-20243.1
328.75
3101.69
-19910.7
-127.557
2673.21
-18829.4
-591.015
2609.53
-16600.6
-1411.51
-12044
-1349.63
3144.96
26.3672
92.6983
3211.03
-1136.85
190.827
3255.47
-1819.7
322.078
3344.4
-2480.66
455.368
3525.33
-3297.07
631.459
3987.24
-4012.25
545.964
4680.11
-3641.55
-25.8009
4535.52
-1966.08
-13.9749
3972.9
-2983.34
442.78
2845.83
-5997.16
186.387
1882.37
-9988.77
99.7921
1683.2
-12909.1
-265.98
2223.78
-13822.5
-965.636
3013.47
-13621
-1311.62
3582.86
-13342.6
-1095.1
3672.92
-13498.9
-492.728
3412.11
-14116.1
336.336
3357.07
-15827.1
623.712
3595.4
-17957.7
-7.53457
3674.47
-19057
-663.782
3427
-19059.9
-950.65
3065.38
-18308.7
-1257.39
2735.18
-16931.6
-1581.59
2894.39
-14442
-2332.11
-9962.63
-2224.83
3148.23
8.54417
89.4035
3133.09
-1235.03
227.739
3076.28
-2047.93
381.967
3093
-2952.27
549.804
3408.65
-4247.18
746.571
4118.35
-5098.37
518.056
5004.12
-4108.94
-233.308
4875.4
-1282.56
-319.979
3912.76
-2170.04
289.86
2288.01
-4749.78
481.181
1164.92
-9283.95
519.342
1117.37
-12499.8
-246.905
1851.66
-13158.6
-1278.73
2711.08
-12661.5
-1701.95
3239.15
-12268.2
-1490.94
3294.18
-12452.4
-1013.27
3121.96
-13343.3
-547.643
3226.74
-15105.4
-808.881
3524.34
-16668.7
-1590.56
3611.42
-17137.4
-2007.76
3394.18
-16771.3
-2066.82
3094.7
-15767.6
-2227.31
2827.26
-14205.9
-2446.91
3209.28
-11633.7
-3187.31
-7438.5
-3093.94
3154.4
-13.0362
90.2166
3043.97
-1340.17
278.695
2876.32
-2280.71
455.832
2750.15
-3451.38
690.385
3112.71
-5413.3
881.651
4069.82
-6385.46
460.853
5381.31
-4725.26
-445.529
5498.74
-606.473
-361.829
3750.85
-767.719
601.624
1581.9
-3472.78
1036.9
412.104
-8850.59
826.862
582.404
-12167.4
-436.176
1499.96
-12308.3
-1707.13
2403.71
-11351.7
-2142.26
2880.37
-10749.5
-1924.1
2903.3
-10819.9
-1600.68
2809.45
-11637.7
-1584.09
3069.27
-13051.5
-2301.55
3476.49
-14070.1
-3000.02
3619.5
-14162.2
-3105.3
3437.51
-13632.2
-2934.08
3173.38
-12527.4
-2949.62
2933.78
-10847
-3096.85
3485.64
-8343.39
-3839.03
-4681.08
-3753.4
3159.2
-61.5471
95.6521
2924.73
-1402.76
346.645
2635.52
-2511.29
553.521
2240.39
-3912.52
891.625
2390.64
-6528.8
1041.19
3242.58
-7485.95
395.647
4605.71
-5116.65
-703.218
4982
-385.941
-243.824
3023.43
425.023
1049.99
675.344
-2403.32
1506.13
-360.053
-8529.87
913.006
64.5124
-11616.3
-779.794
1155.48
-11047.1
-2195.61
2108.7
-9571.67
-2607.14
2557.73
-8748.34
-2347.07
2559.88
-8616.41
-2131.1
2538.09
-9031.68
-2542.59
2964.06
-9885.16
-3590.7
3509.91
-10513.1
-4104.98
3733.72
-10512.2
-3857.9
3587.2
-9987.96
-3449.22
3337.95
-8881.58
-3325.1
3095.13
-7103.53
-3421.71
3662.82
-4716.04
-4139.34
-2002.99
-4039.39
3149.92
-112.051
109.547
2771.13
-1424.05
426.767
2314.55
-2700.7
676.378
1466.33
-4146.35
1151.98
1158.31
-7283.48
1157.01
1533.94
-7927.54
223.135
2700.35
-4845.25
-1035.61
3394.96
-339.872
-278.976
1647.06
1275.01
1217.98
-329.044
-1916.44
1697.88
-1105.93
-8434.06
803.86
-431.267
-11010.3
-1208.35
832.064
-9542.53
-2712.61
1859.39
-7470.03
-3073.26
2335.75
-6429.48
-2730.44
2302.61
-6088.94
-2442.61
2315.92
-5889.04
-3128.81
2914.05
-5985.33
-4485.92
3650.55
-6377.44
-4860.64
3993.41
-6520.57
-4300.53
3891.31
-6137.87
-3698.31
3625.12
-5093.79
-3452.44
3338.55
-3291.67
-3471.39
3736.03
-1082.81
-4009.82
409.823
-4027.72
3117.1
-156.26
130.699
2583.76
-1390.83
518.962
1880.74
-2797.21
829.045
405.581
-4068.84
1425.24
-395.343
-7489.28
1107.93
-480.04
-7507.72
-116.062
268.531
-3747.34
-1423.4
1019.02
65.6419
-684.117
-63.3226
1829.12
915.6
-1207.69
-2152.5
1725.53
-1901.4
-8008.7
546.07
-989.95
-10021.2
-1609.05
453.264
-7616.46
-3152.91
1609.57
-5019.62
-3456.27
2231.6
-3882.93
-3063.6
2222.55
-3512.2
-2479.11
2214.26
-2773.62
-3049.97
2905.02
-1855.59
-4791.64
3842.05
-1934.98
-5371.89
4335.74
-2282.99
-4705.56
4328.98
-2126.63
-3953.47
4047.2
-1181.5
-3553.96
3749.24
421.114
-3339.13
4145.26
2105.23
-3532.21
2654.72
-3794.22
3055.64
-167.456
158.302
2399.32
-1306.34
611.487
1326.11
-2676.78
1002.19
-772.903
-3466.57
1634.39
-1740.72
-7228.85
841.44
-1760.18
-6800.51
-482.013
-721.605
-2736.89
-1565.9
139.998
607.965
-891.889
-548.147
2186.84
683.732
-1819.01
-2270.89
1638.06
-2816.08
-6991.81
138.271
-1735.76
-9107.42
-1898.54
-90.6013
-5759.94
-3444.12
1281.96
-2574.22
-3759.82
2238.26
-1409.43
-3383.06
2351.02
-1064.32
-2515.68
2210.25
-70.0392
-2534.51
2826.04
2035.41
-4503.12
3878.42
2694.7
-5678.59
4541.22
2344.48
-5283.96
4652.71
2209.65
-4434.39
4493.67
2752.84
-3767.02
4304.08
3797.31
-3191.54
4612.4
4904.12
-3122.6
4889.8
-3460.95
3013.47
-158.165
186.716
2264.55
-1206.01
694.025
697.299
-2214.93
1177.79
-1706.69
-2618.8
1661.19
-2546.06
-6719.83
468.071
-2356.53
-6119.6
-629.032
-1129.56
-2243.48
-1387.96
-173.639
822.272
-825.211
-805.294
2295.29
852.594
-2249.66
-1881.36
1345.08
-3411.14
-5375.86
-230.57
-2556.81
-7815.25
-1762.32
-814.052
-3674.96
-3550.84
1080.23
-252.872
-4058.76
2448.08
902.4
-3583.66
2531.05
1234.14
-2317.44
2047.61
1964.62
-1498.63
2548.63
5067.89
-3520.53
3710.16
7085.35
-5559.34
4592.15
7127.56
-5679.13
4903.74
6713.33
-4832.41
4895.79
6700.08
-3956.38
4810.42
7098.05
-3230.99
4999.24
7674.81
-2967.37
7046.17
-3239.72
3001.32
-162.625
213.912
2230.56
-1108.11
757.57
170.206
-1337.38
1323.29
-2134.22
-1438.21
1366.11
-2773.28
-6143.76
223.722
-2331.98
-5917.88
-445.37
-1439.92
-2153.48
-736.193
-1018.43
691.734
-23.5148
-1426.61
1114.02
1831.68
-2650.73
-2026.25
1523
-3844.69
-4014.25
-36.64
-2919.6
-7221.96
-1462.2
-1131.88
-1900.36
-3537.08
1113.2
1485.31
-3972.58
2567.84
2675.7
-3229.16
2482.27
3050.96
-1723.23
1696.83
2663.92
56.5813
2175.29
5778.03
-1217.14
3410.91
10003.3
-4185.21
4491.71
11241.2
-5223.46
5069.79
10765.5
-4669.62
5286.57
10202.8
-3762
5303.94
10000.2
-2963.42
5355.43
10192.8
-2602.77
9071.12
-2879.16
3006.39
-188.732
242.813
2281.11
-1063.69
796.184
-55.4764
-226.121
1433.38
-2256.36
-4.12995
1082.73
-2928.36
-5364.85
46.2869
-1947.66
-6139.06
-524.696
-1197.45
-4312.94
1720.95
-1007.14
-329.946
1055.11
-1605.23
-556.53
2418.97
-3066.83
-1913.62
1416.94
-4397.17
-3017.33
316.862
-3527.48
-6871.95
-1029.84
-1411
-636.12
-3263.27
923.273
2632.4
-3411.77
2440.18
3634.14
-2439.35
2499.33
3922.69
-919.012
1626.05
2608.56
943.152
1913.84
3923.99
1564.15
3083.62
10195.7
-1373.59
4239.47
13570.3
-3507.64
5050.78
13609.5
-3688.58
5511.26
12717.1
-3017.22
5683.9
12030.4
-2245.96
5742.97
11914.2
-1807.34
10705.9
-2150.67
3039.68
-278.096
274.948
2403.31
-1079.72
805.846
81.5483
908.777
1518.03
-1902.54
1505.24
970.083
-3256.2
-3604.69
-198.814
-2231.71
-5258.71
-1714.38
-1252.18
-4480.49
-593.839
-785.58
-740.05
156.498
-1524.3
-660.26
999.223
-3255.59
-807.641
712.752
-4491.99
-1931.24
185.971
-4456.49
-5821.58
-1107.9
-2004.73
-241.226
-2845.68
550.34
2766.54
-2677.51
2159.87
3646.27
-1630.86
2684.91
3704.71
-328.92
1966.72
2463.73
812.226
1821.03
1437.44
2544.74
2764.2
7666.05
1529.07
3909.45
13326.8
-950.542
4885.21
14548.5
-1963.39
5605.4
13757.8
-1809.48
6048.4
12757.7
-1212.99
6234.35
12449.2
-746.405
11721.8
-1218.67
3103.16
-453.193
307.774
2525.44
-1134.07
811.588
421.461
1886.97
1613.55
-1448.92
2444.22
1509.76
-3585.72
-1452.81
185.927
-2471.94
-4124.81
-2106.03
-1052.63
-4122.18
-1611.28
-263.103
-1387.62
-51.6429
-1609.25
824.604
-275.237
-3218.06
767.208
-247.807
-4157.61
-899.787
-481.365
-4846.29
-4056.45
-1416.95
-2622.39
-202.872
-2404.88
-5.94398
2100.47
-2025.8
1794.44
2865.85
-1079.04
2720.02
2786.71
-27.48
2462.89
2098.75
606.459
1549.78
484.227
1879.67
2221.95
4011.87
3014.03
3405.24
10669.9
1481.94
4561.49
13237.7
138.261
5558.03
12945.5
-220.264
6307.94
11923.2
42.0489
6838.65
11540
345.265
11666.2
-224.938
3124.26
-674.805
336.212
2396.14
-1046.43
912.114
-8.28893
3109.89
1661.84
-2184.64
3172.57
1824.1
-3785.11
-416.838
790.082
-2791.64
-3397.05
-1597.41
-1330.32
-3850.56
-1655.25
-736.458
-1376.05
-659.716
-2148.31
2541.55
-441.539
-2504.27
1576.1
-630.505
-2999.26
251.401
-898.098
-3954.23
-1884.7
-1475.55
-2304.33
3.40975
-2049.98
-201.897
1547.91
-1664.93
1523.73
1990.09
-929.26
2528.14
1805.63
-65.3442
2512.13
1434.56
642.454
1065.4
334.007
1538.57
1058.92
681.572
3287.26
2436.11
6198.81
3050.56
3793.06
9803.08
2028.21
5071.63
10148.7
1461.98
6181.15
9389.74
1366.22
7244.67
9095.64
1343.75
10022.4
837.235
2919.79
-687.558
352.669
724.409
439.339
1095.43
-2000.65
4469.25
1792.88
-2537.52
3057.28
1330.87
-3012.48
-805.817
1161.52
-2640.36
-2955.6
-673.917
-2135.29
-3396.03
-907.084
-2064.85
-398.977
-1065.35
-3112.87
3929.06
-408.096
-2757.71
1605.54
-471.055
-1299.16
385.983
-1750.38
-1217.72
122.994
-2335.33
-374.117
844.904
-1909.29
993.098
1512.21
-1510.25
2359.9
1517.38
-1008.63
3304.14
1106.89
-325.576
3322.89
1009.95
306.541
1673.69
853.476
997.171
-158.249
-369.16
2734
807.331
1457.17
3647.1
2370.73
4844.77
3274.88
3963.48
5592.12
2841.13
5424.84
5257.31
2569.31
7063.45
5090.63
2304.75
6399.27
1720.8
2135.84
430.208
1776.44
949.612
3112.39
3363.79
2726.9
3793.39
150.789
1890.52
-2333.37
-405.606
-5235.51
-444.178
-5391.39
-219.061
-4481.23
3083.5
-3991.06
1134.08
-3393.22
-238.94
-3261.41
-57.6629
-1625.91
-845.015
-47.3996
-111.046
1326.36
110.179
2028.89
367.218
2247.63
737.238
2248.27
782.97
192.68
1600.55
-1629.17
3192.78
-382.36
3522.9
1731.73
3416.06
3799
3150.14
6024.25
2849.16
2271.03
3270.01
57.0039
63.0073
3731.73
-94.3232
120.953
4162.55
-110.362
241.904
4518.23
-80.5425
378.401
4815.1
-110.962
562.579
4976.87
-23.4817
731.771
4838.05
154.535
1024.41
4585.92
73.6485
1408.77
4381.78
332.298
835.001
3206.49
1618.51
315.554
-126.4
2847.8
2686.89
-1605.83
-600.514
5874.75
-1181.83
-3637.01
7152.85
-115.114
-4847.5
7232.48
1083.7
-5184.21
6759.94
2135.93
-5054.99
6158.26
2995.03
-4652.43
5604.75
3633.19
-4178.54
5090.91
3896.86
-3551.2
4541.08
3615.28
-2589.63
3976.88
2823.74
-1484.61
3463.01
1952.13
-1003.81
3074.83
1304.9
-1566.8
2783.16
2672.19
-4107.8
2770.33
-7584.73
3056.84
3363.46
23.0416
58.4785
3814.59
-174.01
120.208
4215.74
-202.253
247.499
4557.13
-166.851
376.277
4914.63
-269.991
523.763
5193.03
-170.22
763.419
5240.16
70.0101
1112.21
5716.73
-374.882
1216.8
5655.6
490.667
1144.26
3228.13
3360.78
2406.77
1316.43
2719.94
4832.03
1659.74
-3370.41
6999.62
2642.26
-7821.89
7661.51
3700.15
-9259.01
7278.94
4622.99
-9295.28
6579.48
5312.08
-8694.6
5925.12
5720.47
-7828.46
5447.09
5758.82
-6942.82
5163.43
5198.98
-5848.9
5017.92
3948.69
-4416.2
4870.08
2419.07
-3295.05
4561.84
1460.7
-3500.82
4151.74
1764.37
-4922.17
4015.27
3458.7
-8495.44
4178.44
-11394.2
3765.52
3339.44
20.9125
54.8855
3762.13
-252.128
124.106
4154.16
-311.442
245.291
4538.08
-334.407
385.478
4878.35
-452.012
561.985
5090.68
-277.848
788.075
5233.05
-59.0537
1021.21
5872.81
-917.639
1079.98
5579.43
549.88
1366.75
3827.33
4022.05
2803.53
3909.2
1224.66
5093.27
4609.55
-6078.61
6669.43
5200.63
-10878.4
6579.86
5702.5
-12170.3
5796.29
6128.62
-11888.5
4950.41
6440.74
-10918.5
4330.67
6577.03
-9747.91
4084.23
6350.41
-8664.99
4289.89
5463.27
-7379.9
4821.93
4021.97
-5986.17
5293.25
2771.88
-5523.99
5395.44
2393
-6595.84
5268.71
3029.75
-8650.74
5260.73
3923.5
-12185.2
5088.26
-13181.1
3960.42
3341.42
13.9432
52.3403
3757.39
-326.302
126.241
4141.78
-419.246
247.978
4532.66
-519.166
383.419
4882.12
-652.176
551.585
5122.85
-402.959
742.589
5432.73
-326.31
924.884
6075.58
-1452.77
955.56
5588.83
537.394
1249.79
5055.59
3590.09
2755.29
6312.39
-687.162
4613.03
6939.52
-8057.02
5198.73
7022.49
-12471.4
4501.36
7009.79
-13463.1
3494.59
7020.91
-12976.5
2725.58
7010.41
-11842.1
2416.49
6916.25
-10684.9
2698.1
6504.44
-9743.43
3588.36
5518.47
-8642.63
4788.77
4320.63
-7808.83
5707.62
3619.3
-8261.41
6040.9
3580.41
-9938.51
6021.99
3988.69
-12167.2
5942.96
3689.69
-14728
5385.03
-13545.1
3768.15
3336.45
18.8454
50.3694
3747.48
-435.106
129.574
4129.59
-558.228
250.768
4513.9
-731.47
382.558
4868
-898.579
530.044
5147.36
-615.167
690.973
5590.27
-772.748
857.876
6269.64
-2028.49
782.197
5950.06
311.057
1067.89
6692.94
2446.66
2582.13
8151.89
-2400.79
3673.79
8458.63
-9090.88
3340.21
8126.23
-12710.1
2143.2
7741.58
-13413.6
1151.67
7426.27
-12975.1
807.496
7119.1
-12021
1156.27
6839.17
-11271.8
2118.58
6373.33
-10758.6
3563.81
5580.49
-10134.3
5105.61
4887.88
-10103.8
6109.1
4629.11
-11290.8
6415.95
4607.18
-13136.8
6337.45
4476.08
-15010.4
6072.13
2994.03
-15947.5
5113.43
-12918.7
3265.06
3331.21
22.7678
45.7008
3721.05
-531.667
138.163
4096.37
-694.774
259.623
4484.11
-947.023
392.581
4861.02
-1162.44
523.393
5205.09
-908.379
678.154
5713.12
-1311.95
862.837
6424.7
-2584.93
557.919
6531.57
-181.765
824.219
8039.2
1022.4
2214.5
9182.42
-3740.07
2606.24
9100.13
-9337.56
1489.15
8482.4
-12128.2
174.2
7872.37
-12802.7
-326.579
7310.01
-12717.8
34.4746
6794.45
-12238.4
1012.91
6482.21
-12090.8
2344.41
6179.51
-12075.7
3940.71
5819.57
-12029.2
5439.49
5629.19
-12695.8
6231.49
5560.81
-14203.3
6351.62
5313.74
-15771.7
6106.71
4535.93
-16836.8
5573.68
2188.26
-15942.5
4316
-11777.3
2598.42
3340.17
28.3166
36.7278
3688.19
-642.428
154.267
4049.29
-863.509
273.79
4427.91
-1187.99
398.236
4835.75
-1480.76
516.635
5254.61
-1334.69
701.786
5771.95
-1905.87
843.887
6491.91
-3020.95
260.939
7145.51
-622.735
530.25
8718.43
-164.28
1644.88
9325.47
-4430.24
1353.18
8867.76
-9021.86
91.6266
8075.63
-11450.5
-638.045
7352.89
-12430
-501.122
6712.4
-12839
279.399
6243.91
-12864.4
1379.18
6122.28
-13222.1
2638.35
6167.46
-13616.4
4108.67
6282.98
-14052.7
5339.65
6381.2
-15080.1
5781.73
6240.23
-16469
5655.89
5631.32
-17415.6
5188.55
4323.97
-17467.1
4410.22
1628.42
-15072
3115.99
-10469.9
1884.01
3348.25
17.7246
24.8629
3647.31
-720.192
176.75
3992.32
-1030.04
294.379
4362.47
-1416
404.871
4784.57
-1781.55
516.049
5228.04
-1784.21
730.952
5754.25
-2478.18
700.79
6513.43
-3349.03
-36.002
7535.5
-1140.36
538.509
8717.48
-1184.68
1313.88
8722.09
-4962.56
795.251
7945.78
-8985.68
72.6862
7111.44
-11358.7
-228.004
6453.7
-12582.1
-67.484
5959.33
-13300.8
513.852
5745.44
-13670
1370.55
5932.13
-14359.5
2444.92
6352.57
-15020.4
3704.35
6784.13
-15709.6
4541.85
6900.38
-16726.7
4599.46
6520.18
-17685.3
4236.86
5584.82
-17890.7
3584.26
4044.19
-17085.7
2729.71
1494.44
-13838.3
1717.31
-9194.71
1165.8
3346.61
17.1376
13.8709
3601.28
-809.294
202.765
3917.95
-1219.26
322.065
4285.17
-1674.51
426.434
4708.84
-2096.32
541.819
5155.15
-2261.5
759.031
5724.76
-3035.05
471.713
6503.27
-3593.49
-176.41
7533.91
-1838.76
816.919
8080.87
-2465.37
1626.56
7522.52
-5988.35
1443.08
6637.41
-9545.28
821.521
5982.32
-11709.8
169.227
5599.01
-12899.9
-143.521
5388.6
-13686.6
91.9998
5451.53
-14273.8
772.115
5892.26
-15149.2
1713.52
6570.7
-15914
2677.15
7072.45
-16595
3051.76
7010.07
-17344.1
2796.68
6390.9
-17773.2
2298.89
5332.73
-17366.6
1605.34
3876.23
-16046.3
889.252
1677.8
-12482.4
315.108
-7894.25
333.189
3335.99
13.4402
4.54155
3555.31
-875.419
232.545
3827.35
-1384.3
364.606
4185.94
-1921.76
475.901
4605.89
-2388.15
617.582
5027.03
-2702.63
788.458
5610
-3528.62
241.168
6385.36
-3905.89
-160.053
7174.9
-2823.43
1100.76
6959.66
-3940.21
2069.97
5992.51
-7146.49
1989.75
5280.19
-10226.6
1015.33
5004.69
-12022.5
-170.428
4974.9
-12962.1
-852.675
5022.92
-13657.7
-769.149
5280.54
-14400.1
-156.952
5884.4
-15336.1
591.003
6654.78
-16061.9
1149.73
7020.6
-16588.8
1125.14
6730.89
-17023.8
740.952
6015.1
-17026.5
256.419
5061.05
-16234.2
-350.972
3786.22
-14558.2
-850.064
1808.81
-10776.5
-1181.23
-6277.39
-947.218
3330.7
23.044
-3.03387
3513.5
-955.364
265.755
3737.52
-1547.76
423.109
4061.79
-2179.24
554.425
4490.53
-2750.29
744.231
4891.15
-3156.93
805.78
5420.95
-3940.82
49.4315
6025.33
-4261.83
-78.8241
6288.18
-3734.09
1224.63
5426.96
-5083
2285.67
4447.4
-8097.75
2111.64
4145.1
-10781.9
660.858
4288.52
-12077.5
-991.807
4506.09
-12597.3
-1832.33
4708.63
-13127.2
-1770.59
5104.2
-13957.6
-1286.17
5827.68
-14855.8
-841.86
6544.18
-15447.2
-701.323
6688.96
-15812.1
-940.384
6257.82
-15971.6
-1307.38
5578.28
-15606
-1717.68
4740.26
-14468.2
-2214.96
3597.96
-12441.9
-2585
1886.17
-8528.8
-2893.42
-4368.02
-2478.61
3336.41
18.2496
-11.1436
3473.53
-1007.8
310.259
3651.08
-1691.34
496.557
3939.21
-2429.43
670.289
4420.06
-3213.65
904.374
4838.09
-3682.65
814.071
5181.52
-4318.25
-23.737
5363.36
-4579.44
-5.00834
4996.93
-4233.11
1298.54
3877.69
-5846.08
2490.15
3192.3
-8862.58
2092.93
3310.21
-11083.9
51.4867
3723.24
-11706.4
-1961.5
4029.52
-11697.1
-2813.13
4303.59
-12009.4
-2801.86
4833.47
-12816.1
-2624.3
5663.82
-13605.2
-2596.98
6236.86
-14027.3
-2796
6133.76
-14196.2
-3111.28
5587.68
-14022.8
-3419.35
4955.13
-13309.7
-3733.47
4222.25
-11895.3
-4065.6
3264.96
-9663.22
-4265.42
1927.77
-5847.21
-4537.89
-2343.05
-3977.93
3346.92
12.7183
-17.1443
3434.79
-1048.85
365.003
3570.96
-1830.18
582.856
3850.33
-2705.74
821.365
4388.2
-3790.52
1079.14
4732.32
-4192.31
836.306
4758.48
-4572.63
25.6402
4488.77
-4535.2
84.9065
3672.21
-4157.71
1514.16
2643.77
-6385.18
2745.67
2272.23
-9480.9
1925.03
2642.93
-11127.9
-678.404
3161.48
-10947.4
-2912.48
3474.12
-10336.3
-3747.87
3779.42
-10337.4
-3843
4426.98
-10960.8
-4065.08
5311.72
-11559.4
-4496.97
5680.41
-11759.9
-4936.79
5329.13
-11652
-5197.07
4694.22
-11177.7
-5313.64
4127.9
-10270
-5397.49
3541.72
-8742.23
-5500.94
2856.58
-6530
-5533.56
2032.75
-3114.39
-5744.04
-502.339
-5062.32
3360.6
-8.12378
-20.6001
3399.16
-1053.07
432.703
3495.07
-1949.51
689.639
3772.17
-2987.18
1019.05
4314.84
-4423.53
1277.64
4342.57
-4584.12
930.726
3941.2
-4640.66
-36.3855
3360.69
-4197.41
206.183
2369.97
-3690.51
1765.32
1693.92
-6853.45
2855.36
1547.29
-9811.41
1555.9
2021.53
-10775.9
-1464.87
2563.96
-9741.26
-3831.13
2859.77
-8496.79
-4646.63
3152.49
-8130.1
-4766.82
3879.88
-8443.99
-5319.26
4815.27
-8807.95
-6206
5023.36
-8784.59
-6771.09
4463.81
-8438.6
-6761.49
3747.96
-7820.39
-6484.94
3236.57
-6895.64
-6274.68
2844.92
-5418.9
-6197.32
2525.03
-3452.28
-6113.67
2350.52
-808.192
-6225.84
959.205
-5471.97
3374
-28.7038
-19.337
3368.09
-1023.45
510.095
3429.6
-2048.73
816.087
3674.51
-3217.5
1259.67
4076.29
-4999.34
1476.42
3655.02
-4696.76
986.781
2875.38
-4481.41
-104.853
2064.3
-3732.34
315.193
1159.54
-3174.52
1819.15
982.549
-7515.08
2723.36
926.86
-9881.98
1052.86
1411.4
-10102.5
-2276.28
1959.86
-8211.56
-4717.64
2249.32
-6353.88
-5437.9
2508.49
-5616.3
-5443.94
3287.13
-5556.52
-6065.64
4351.66
-5639.31
-7341.72
4554.58
-5449.7
-8017.24
3861.78
-4961.86
-7637.72
3056.52
-4369.48
-6924.13
2572.59
-3599.34
-6467.4
2402.59
-2383.49
-6261.72
2472.07
-873.361
-6072.49
2819.11
842.953
-5985.27
2061.29
-5349.53
3388.09
-50.9644
-14.9849
3341.18
-955.616
596.472
3387.96
-2130.01
963.79
3514.73
-3321.46
1520.87
3524.37
-5378.75
1630.95
2569.6
-4565.95
919.017
1528.37
-4384.24
-196.579
627.9
-3483.68
221.264
218.964
-3303.47
1671.85
443.443
-8300.45
2532.06
321.54
-9535.17
504.949
779.711
-9003.39
-3007.98
1336.71
-6311.92
-5500.57
1683.31
-4031.49
-6042
1994.17
-3054.65
-5870.46
2802.12
-2639.81
-6157.34
4048.87
-2323.8
-7587.2
4470.54
-1933.5
-8723.74
3807.9
-1335.66
-8330.66
2898.27
-877.028
-7274.19
2374.51
-470.435
-6524.78
2334.11
248.469
-6094.99
2653.63
1187.3
-5667.58
3222.83
2139.21
-5363.48
2890.63
-4947.69
3388.11
-54.0796
-5.82395
3322.97
-856.875
680.432
3371.62
-2183.18
1115.38
3240.77
-3169.54
1748.2
2669.95
-5457.75
1645.13
1243.53
-4014.22
709.899
404.575
-4314.42
-430.196
-229.601
-3583.86
123.175
-40.9344
-4083.28
1514.34
-18.711
-8735.31
2242.16
-338.13
-8924.39
-40.5953
116.388
-7688.34
-3572.85
688.634
-4208.36
-6049.26
1183.92
-1788.53
-6446.9
1687.99
-793.09
-6113.05
2563.31
-166.521
-5839.09
3944.3
610.202
-6841.38
4699.32
1374.76
-8567.96
4371.95
2200
-8893.53
3544.3
2663.01
-7998.98
2935.89
2706
-7000.91
2796.86
2850.31
-6225.05
3061.45
3155.35
-5423.33
3517.29
3436.36
-4879.99
3539.05
-4485.07
3391.53
-41.0537
4.78777
3340.61
-763.618
754.408
3369.42
-2172.3
1258.32
2825.52
-2706.09
1897.93
1785.74
-5241.72
1515.89
256.743
-3144.28
445.6
-395.173
-3958.51
-691.93
-464.312
-4039.81
41.3051
171.669
-5260.4
1705.3
-417.57
-8587.8
2002.8
-968.508
-7770.32
-686.222
-603.114
-5732.08
-3960.34
90.6004
-2069.02
-6322.1
840.028
54.332
-6617.4
1587.52
957.306
-6070.66
2462.58
1751.55
-5106.69
3828.55
2998.66
-5260.84
4803.41
4205.24
-7337.34
4797.62
5246.55
-8613.69
4241.29
5739.7
-8215.41
3708.04
5599.21
-7212.99
3492.08
5376.64
-6286.45
3602.65
5189.81
-5390.39
3859.29
4923.38
-4719.35
4115.62
-4230.59
3396.57
-17.8953
17.1052
3421.97
-711.192
809.117
3397.06
-2055.52
1379.87
2299.88
-1983.32
1947.8
932.174
-4739.37
1338.96
-64.9844
-2297.93
334.783
-276.163
-2778.71
-808.923
342.584
-4780.09
581.738
184.676
-5543.78
2633.84
-1412.02
-6930.27
1637.68
-1838.81
-5838.21
-1484.72
-1145.39
-3350.34
-4488.63
-182.641
-162.308
-6394.53
848.546
1564.31
-6518.23
1890.76
2361.84
-5693.89
2557.55
3257.29
-3915.47
3559.92
4436.41
-2409.21
4779.03
6082.22
-4341.47
4951.64
7617.16
-6757.4
4464.76
8235.14
-7264.49
3939.47
7916.39
-6499.26
3691.07
7362.46
-5537.87
3706.99
6838.12
-4666.24
3849.88
6147.9
-4000.12
4502.55
-3767.97
3422.3
3.81567
29.1545
3589.31
-786.481
839.204
3482.51
-1853.66
1496.23
1832.49
-946.601
1953.77
466.564
-3995.44
1121.79
1940.06
-3437.89
-35.3215
2794.48
-1124.8
325.476
1411.96
-3970.01
2073.62
-363.301
-3502.19
2455.38
-2228.49
-3653.86
116.889
-2324.57
-3076.28
-2304.43
-1328.48
-670.402
-4677.08
-322.783
1705.54
-6127.81
944.314
2942.22
-6061.3
2285.38
3533.03
-4974.85
2984.5
4320.3
-2709.78
3352.97
4645.38
336.413
4602.93
5904.55
453.76
5116.09
8265.69
-2579.74
4631.42
9679.78
-4513.47
3913.39
9530.36
-4632.8
3506.05
8697.95
-3995.19
3419.2
7924.55
-3289.12
3366.33
7013.68
-2649.61
4693.92
-2700.72
3473.83
-5.5026
41.1643
3846.24
-1059.1
847.838
3696.33
-1635.47
1634.39
2076.68
82.4966
1913.25
-233.526
-2126.36
774.03
20.0595
-4096.21
-848.884
1305.71
-2491.92
200.982
572.031
-4158.51
1466.03
-1186.08
-1486.53
893.834
-2445.91
-741.974
-887.043
-2461.86
-275.311
-2624.44
-1481.48
1650.48
-4422.81
-397.653
3224.1
-5468.44
1002.49
4012.85
-5170.86
2465.21
4327.66
-3923.37
3411.26
4805.15
-1788.22
3455.01
4286.62
1088.62
4381.6
3987.76
3495.13
5229.26
6646.34
2259.97
4863.84
9464.42
-415.668
3995.13
10207.7
-1820.82
3358.89
9507.68
-2032.86
3167.75
8566.33
-1709.49
2859.19
7510.48
-976.277
4985.37
-1394.08
3547.71
-75.2251
63.7701
4101.89
-1524.62
865.518
3932.88
-1499.3
1820.09
3198.23
623.909
2026.77
1245.67
-382.081
922.623
-296.125
-3004.45
-1298.54
141.793
-3476.8
-462.657
-833.516
-3296.79
534.668
-2083.21
-285.763
113.19
-2881.95
1243.3
-1242.72
-2863.6
1735.1
-2363.53
-1937.32
3052.83
-3619.46
-720.45
3998.89
-4330.92
827.148
4354.77
-3881.33
2380.92
4359.56
-2676.71
3589.8
4475.4
-943.834
3833.58
3691.11
876.72
4152.86
2070.63
3372.68
5100.2
3973.68
4642.15
5103.8
7641.77
3218.13
4399.27
9574.49
1408.72
3789.78
9518.16
331.883
3627.3
8794.86
-54.0563
3106.07
8079.32
286.46
6048.53
-537.783
3662.65
-272.732
102.361
3966.29
-1794.93
1000.57
2739.21
-589.056
2159.31
1982.39
1047.93
2553.58
1215.69
-151.282
1702.4
82.6671
-2224.76
-920.282
-598.091
-2947.05
-999.954
-2113.6
-1800.33
-150.65
-2857.11
-146.072
483.597
-3346.45
2156.72
-829.357
-3556.47
2673.29
-1468.28
-2638.3
3033.71
-2288.52
-1177.94
3421.22
-2894.97
541.426
3497.24
-2523.39
2117.45
3389.18
-1556.49
3416.76
3295.47
-239.198
3970.82
2758
915.359
3577.59
1341.8
2526.28
4109.63
1757.17
4861.57
4755.41
4805.68
5152.07
4794.75
7420.79
4069.74
4739.04
8040.94
2936.37
4968.74
7706.29
2181.45
4799.68
7662.3
1900.53
6709.97
910.936
3745.95
-569.428
134.41
2489.11
-591.132
1321.42
-812.103
2073.42
2713.19
153.015
-410.235