/*--------------------------------*- C++ -*----------------------------------*\
  =========                 |
  \\      /  F ield         | OpenFOAM: The Open Source CFD Toolbox
   \\    /   O peration     | Website:  https://openfoam.org
    \\  /    A nd           | Version:  11
     \\/     M anipulation  |
\*---------------------------------------------------------------------------*/
FoamFile
{
    format      ascii;
    class       volVectorField;
    location    "50";
    object      U;
}
// * * * * * * * * * * * * * * * * * * * * * * * * * * * * * * * * * * * * * //

dimensions      [0 1 -1 0 0 0 0];

internalField   nonuniform List<vector> 
17196
(
(0.982159 0.0052916 0.01694)
(0.986032 -0.00443493 0.0340234)
(1.06909 0.000273542 0.064978)
(1.1405 0.00330273 0.102629)
(1.11184 0.00269718 0.149058)
(1.05615 0.000599756 0.188018)
(0.995434 -0.000174899 0.187208)
(0.884122 0.000480469 0.198676)
(0.955388 0.0301874 0.243406)
(0.924514 0.0607567 0.259287)
(0.265469 0.0847023 0.311852)
(-0.317635 0.0822406 0.558681)
(-0.499755 -0.120151 0.602715)
(-0.508106 -0.174582 0.525688)
(-0.396311 -0.214274 0.379491)
(-0.138804 -0.220208 0.258594)
(0.202748 -0.165765 0.24503)
(0.427416 -0.0899651 0.252455)
(0.488817 -0.0138361 0.22293)
(0.391433 0.0324864 0.20034)
(0.18974 0.0600022 0.213936)
(0.0146129 0.0858394 0.204397)
(0.0559986 0.0641257 0.0244549)
(0.0457793 0.0266081 -0.179103)
(1.67841 -0.871642 0.0577593)
(0.999548 0.00609303 0.0179603)
(1.01255 -0.0205353 0.034987)
(1.09876 -0.0172978 0.064963)
(1.16586 -0.0244668 0.107968)
(1.1317 -0.0363243 0.152016)
(1.09771 -0.0252024 0.187871)
(1.06438 0.00955909 0.197157)
(0.902936 0.0199151 0.269491)
(0.979181 -0.0119393 0.346004)
(0.836282 0.144079 0.431299)
(0.0942594 0.32707 0.411871)
(0.0155822 -0.471964 0.779268)
(-0.0115484 -0.874606 0.702362)
(0.133854 -0.913885 0.624123)
(0.396721 -0.869069 0.56972)
(0.646286 -0.786156 0.535602)
(0.818316 -0.657273 0.517447)
(0.864409 -0.478585 0.495886)
(0.70271 -0.25527 0.4276)
(0.303832 -0.0604116 0.276575)
(-0.253254 -0.006111 0.0166747)
(-0.445998 -0.168706 -0.207135)
(-0.115393 -0.27244 -0.0201289)
(0.37335 -0.566291 0.179905)
(1.10175 -1.30572 0.248415)
(0.993804 0.00322073 0.0178147)
(1.00416 -0.0332466 0.034816)
(1.08648 -0.0413446 0.0639816)
(1.15268 -0.0494479 0.111881)
(1.13983 -0.0525449 0.14906)
(1.11437 -0.0225133 0.170472)
(1.03432 0.0461964 0.188365)
(0.994331 -0.00807049 0.304624)
(1.07857 -0.13086 0.297623)
(0.700462 0.168506 0.415134)
(0.332135 0.0714402 0.827586)
(0.411678 -1.12156 0.840247)
(0.45796 -1.56477 0.647537)
(0.608449 -1.58512 0.529476)
(0.83674 -1.47705 0.463709)
(1.05336 -1.30628 0.452356)
(1.18671 -1.07903 0.490914)
(1.14503 -0.778079 0.543761)
(0.824376 -0.405548 0.541551)
(0.272413 -0.084345 0.415432)
(-0.152001 -0.0288366 0.193694)
(-0.0683896 -0.29634 0.144361)
(0.2386 -0.613003 0.31666)
(0.62623 -1.13526 0.395688)
(0.950744 -1.74753 0.287509)
(0.990478 0.00158033 0.0181221)
(1.00367 -0.0442253 0.0340672)
(1.08804 -0.0621585 0.0654638)
(1.16114 -0.0608198 0.112329)
(1.16611 -0.0554483 0.139502)
(1.14085 -0.0146457 0.1483)
(1.04548 0.0626005 0.179433)
(1.14306 -0.0430169 0.308565)
(1.17955 -0.23641 0.158425)
(0.715524 0.204976 0.478508)
(0.678718 -0.553767 0.984564)
(0.754797 -1.79376 0.661406)
(0.791797 -2.15976 0.409764)
(0.926533 -2.10863 0.281374)
(1.13218 -1.91869 0.231674)
(1.32596 -1.67181 0.269333)
(1.41524 -1.36955 0.383174)
(1.27563 -0.978016 0.51927)
(0.81367 -0.521013 0.583732)
(0.23955 -0.237309 0.503418)
(0.0723049 -0.39231 0.379746)
(0.266834 -0.791063 0.401838)
(0.476318 -1.16211 0.505039)
(0.748323 -1.70065 0.472154)
(0.811602 -2.07167 0.260842)
(0.985898 0.00180973 0.0183463)
(1.00397 -0.0590733 0.0336503)
(1.08899 -0.0842543 0.0676039)
(1.16923 -0.0969328 0.111255)
(1.19141 -0.110212 0.130127)
(1.16617 -0.0737056 0.128095)
(1.09836 -0.00553345 0.179529)
(1.28083 -0.115195 0.310319)
(1.17952 -0.179767 0.122046)
(0.981654 0.123948 0.729718)
(0.970705 -1.17859 0.859596)
(0.991052 -2.28244 0.386071)
(1.01208 -2.53644 0.126717)
(1.12741 -2.41337 0.00962762)
(1.30635 -2.1658 -0.00923735)
(1.47497 -1.88476 0.08496)
(1.51493 -1.54846 0.273964)
(1.28229 -1.11479 0.485163)
(0.743602 -0.672079 0.60482)
(0.303084 -0.576042 0.56683)
(0.346236 -0.92576 0.503693)
(0.532723 -1.36417 0.53293)
(0.662471 -1.73501 0.587305)
(0.82086 -2.20036 0.464386)
(0.700577 -2.30411 0.193778)
(0.981473 0.00399294 0.0182747)
(1.0017 -0.0779097 0.0335514)
(1.08243 -0.106695 0.0701689)
(1.16279 -0.1307 0.112038)
(1.1957 -0.167163 0.128951)
(1.17827 -0.152656 0.129675)
(1.16427 -0.121177 0.209292)
(1.36183 -0.230826 0.318037)
(1.21107 -0.133271 0.211461)
(1.21827 -0.297065 0.918557)
(1.12376 -1.70101 0.612339)
(1.11195 -2.55543 0.117444)
(1.11879 -2.67729 -0.107465)
(1.22112 -2.49848 -0.192765)
(1.37508 -2.23991 -0.173918)
(1.51913 -1.98938 -0.0376105)
(1.51378 -1.67086 0.206003)
(1.21359 -1.25887 0.473725)
(0.69946 -0.946011 0.631216)
(0.472983 -1.09664 0.605417)
(0.618436 -1.54911 0.554081)
(0.747783 -1.96043 0.570413)
(0.800673 -2.28003 0.584228)
(0.850876 -2.59753 0.390331)
(0.615455 -2.43819 0.105632)
(0.981363 0.00630635 0.0177557)
(1.00076 -0.0963348 0.0340601)
(1.07754 -0.129896 0.0718121)
(1.15245 -0.154222 0.108759)
(1.18782 -0.197661 0.124748)
(1.17536 -0.197149 0.140076)
(1.22273 -0.217118 0.23518)
(1.3964 -0.326464 0.33568)
(1.3382 -0.169211 0.488264)
(1.30749 -0.753898 0.888512)
(1.14735 -1.9996 0.344069)
(1.1247 -2.58539 -0.0618762)
(1.12469 -2.61738 -0.228659)
(1.2233 -2.45963 -0.29741)
(1.36372 -2.25043 -0.250659)
(1.48886 -2.06126 -0.0901029)
(1.45497 -1.79654 0.180113)
(1.13284 -1.46469 0.487127)
(0.734441 -1.35975 0.651237)
(0.696096 -1.70976 0.587735)
(0.85413 -2.17239 0.517581)
(0.907338 -2.5122 0.516969)
(0.887442 -2.73363 0.500368)
(0.844688 -2.86323 0.265123)
(0.567945 -2.46595 0.00962152)
(0.98387 0.00727664 0.0168941)
(0.997432 -0.115135 0.0346142)
(1.0707 -0.160475 0.0723778)
(1.14916 -0.192675 0.100357)
(1.17581 -0.236055 0.111681)
(1.15984 -0.24003 0.139355)
(1.25867 -0.281644 0.22329)
(1.40739 -0.365654 0.363842)
(1.44892 -0.278077 0.727396)
(1.25268 -1.06433 0.706223)
(1.08208 -2.05303 0.143766)
(1.05015 -2.46712 -0.126345)
(1.05359 -2.50711 -0.267047)
(1.15969 -2.39762 -0.335477)
(1.30365 -2.25355 -0.280719)
(1.42798 -2.13607 -0.117394)
(1.38393 -1.93701 0.168025)
(1.08402 -1.73381 0.499801)
(0.83791 -1.85434 0.61564)
(0.911041 -2.30877 0.475133)
(1.02911 -2.71239 0.386548)
(1.0042 -2.94943 0.382453)
(0.922816 -3.04181 0.355342)
(0.820777 -2.97478 0.116285)
(0.571436 -2.39275 -0.0980364)
(0.986473 0.00660115 0.0157666)
(0.992702 -0.132818 0.0360907)
(1.05976 -0.192218 0.0723619)
(1.14465 -0.2425 0.0918688)
(1.15073 -0.300489 0.0981987)
(1.13113 -0.324609 0.129003)
(1.28841 -0.355493 0.185543)
(1.43974 -0.362041 0.394513)
(1.47685 -0.393257 0.765012)
(1.12144 -1.18406 0.461246)
(0.960165 -1.95334 0.0535109)
(0.915535 -2.3134 -0.113561)
(0.928578 -2.39009 -0.262834)
(1.06109 -2.33608 -0.35506)
(1.22533 -2.2496 -0.31086)
(1.35467 -2.19179 -0.157619)
(1.31115 -2.07131 0.144986)
(1.06238 -2.03136 0.472031)
(0.957376 -2.33569 0.476496)
(1.07166 -2.7922 0.260149)
(1.12634 -3.08772 0.183823)
(1.03614 -3.20142 0.202188)
(0.921339 -3.15978 0.188065)
(0.800472 -2.92052 -0.0298914)
(0.633824 -2.24104 -0.207864)
(0.988432 0.00545186 0.0146162)
(0.982812 -0.151547 0.0388519)
(1.04086 -0.229321 0.073941)
(1.1195 -0.296719 0.0908857)
(1.10226 -0.38017 0.0993341)
(1.11196 -0.444705 0.117656)
(1.33585 -0.437617 0.134916)
(1.51597 -0.357357 0.374862)
(1.45641 -0.488662 0.615496)
(0.969561 -1.15744 0.235923)
(0.80985 -1.80024 0.0418168)
(0.742691 -2.16687 -0.0730458)
(0.777492 -2.28815 -0.26533)
(0.955053 -2.26922 -0.390108)
(1.14285 -2.21833 -0.361576)
(1.26951 -2.20427 -0.216296)
(1.22833 -2.17506 0.101239)
(1.04482 -2.30225 0.365235)
(1.04642 -2.70073 0.222134)
(1.15343 -3.06988 -0.0214525)
(1.14584 -3.22973 -0.0395858)
(1.02009 -3.22192 0.0215105)
(0.910049 -3.07369 0.0334181)
(0.813338 -2.74304 -0.165426)
(0.766621 -2.02524 -0.333424)
(0.98867 0.00381194 0.0138985)
(0.969264 -0.167458 0.0428348)
(1.0167 -0.26337 0.0784934)
(1.06764 -0.349819 0.0964114)
(1.04119 -0.456595 0.11696)
(1.12307 -0.549568 0.0995911)
(1.38277 -0.510519 0.0693434)
(1.64051 -0.321108 0.297524)
(1.42229 -0.496498 0.397876)
(0.813648 -1.04023 0.0918379)
(0.65139 -1.64048 0.0860972)
(0.55777 -2.057 -0.0390915)
(0.62735 -2.19805 -0.294281)
(0.852497 -2.17709 -0.450087)
(1.05305 -2.13704 -0.433516)
(1.16805 -2.15427 -0.287532)
(1.12461 -2.22016 0.0246444)
(1.00833 -2.4728 0.156796)
(1.07905 -2.85539 -0.111553)
(1.16026 -3.08368 -0.305676)
(1.11661 -3.11979 -0.233263)
(0.992023 -3.02674 -0.127848)
(0.918152 -2.83056 -0.0971747)
(0.854672 -2.45113 -0.298116)
(0.941017 -1.73412 -0.476368)
(0.990142 0.00275377 0.0134929)
(0.955821 -0.184584 0.048628)
(0.982755 -0.298431 0.086905)
(0.99104 -0.415108 0.110084)
(0.980444 -0.561006 0.137252)
(1.13916 -0.669628 0.0666066)
(1.44164 -0.587715 -0.0151653)
(1.86255 -0.252065 0.173808)
(1.37136 -0.416698 0.218861)
(0.654922 -0.862946 0.0394061)
(0.479212 -1.51026 0.158373)
(0.371015 -1.98151 -0.0279666)
(0.48812 -2.10295 -0.349622)
(0.750926 -2.04896 -0.528718)
(0.954058 -1.99812 -0.515856)
(1.05413 -2.02873 -0.365575)
(0.996528 -2.16466 -0.0961199)
(0.947108 -2.45859 -0.136466)
(1.06553 -2.73885 -0.453251)
(1.13302 -2.8529 -0.544754)
(1.0914 -2.82562 -0.386279)
(0.988657 -2.68724 -0.244958)
(0.943441 -2.45005 -0.200281)
(0.898916 -2.04506 -0.4231)
(1.13275 -1.36695 -0.623773)
(0.991246 -0.00065021 0.0134681)
(0.944003 -0.198923 0.056999)
(0.936919 -0.333245 0.0990771)
(0.904475 -0.490945 0.137547)
(0.901706 -0.721433 0.140704)
(1.05529 -0.845619 -0.00816727)
(1.46061 -0.646377 -0.113229)
(2.20359 -0.0990974 0.109992)
(1.2982 -0.23925 0.117914)
(0.470848 -0.670554 0.0324579)
(0.287647 -1.42439 0.22518)
(0.187774 -1.92366 -0.0472573)
(0.353965 -1.98362 -0.421228)
(0.647497 -1.87259 -0.610525)
(0.851413 -1.79675 -0.595069)
(0.936122 -1.81817 -0.444103)
(0.860068 -1.96168 -0.251046)
(0.884562 -2.21685 -0.450037)
(1.04537 -2.41713 -0.746796)
(1.12095 -2.45642 -0.731727)
(1.09498 -2.38129 -0.498265)
(1.00753 -2.21168 -0.323962)
(0.976944 -1.95715 -0.270816)
(0.938969 -1.55326 -0.519642)
(1.30921 -0.936661 -0.752145)
(0.993618 -0.00575397 0.0139226)
(0.930099 -0.213203 0.0687296)
(0.871489 -0.373453 0.117705)
(0.816323 -0.573733 0.181389)
(0.734445 -0.920204 0.118856)
(0.75139 -1.08271 -0.138599)
(1.2292 -0.754989 -0.257554)
(1.98343 -0.0479187 0.0115524)
(1.0573 -0.0572279 0.0204267)
(0.213401 -0.488658 0.0171372)
(0.0742088 -1.36659 0.267416)
(0.00630166 -1.85614 -0.0916802)
(0.216306 -1.82217 -0.500573)
(0.544331 -1.63691 -0.684991)
(0.756394 -1.52785 -0.663261)
(0.831263 -1.52121 -0.507515)
(0.741176 -1.62802 -0.391497)
(0.836217 -1.81187 -0.710776)
(1.04111 -1.93403 -0.975105)
(1.1412 -1.92839 -0.870466)
(1.1376 -1.83383 -0.577034)
(1.05958 -1.65146 -0.370099)
(1.02559 -1.3851 -0.306595)
(0.978555 -1.01596 -0.56795)
(1.43991 -0.498381 -0.842332)
(0.995653 -0.0134421 0.0152001)
(0.910458 -0.221269 0.0838869)
(0.791746 -0.410021 0.143701)
(0.71263 -0.632442 0.2403)
(0.400968 -1.08192 0.0600202)
(0.252657 -1.24415 -0.315552)
(0.673991 -0.851922 -0.49277)
(1.32677 -0.126433 -0.201874)
(0.576574 0.0562331 -0.15796)
(-0.105362 -0.347007 -0.0201556)
(-0.146744 -1.31379 0.276879)
(-0.173443 -1.75598 -0.152613)
(0.0799794 -1.60075 -0.582673)
(0.450471 -1.32997 -0.754054)
(0.685955 -1.18651 -0.718942)
(0.75953 -1.15179 -0.536331)
(0.642834 -1.16879 -0.45253)
(0.800019 -1.24547 -0.874779)
(1.06195 -1.32107 -1.13988)
(1.20485 -1.3252 -0.985764)
(1.23033 -1.24394 -0.65909)
(1.15933 -1.06618 -0.420673)
(1.10005 -0.78626 -0.339351)
(1.00982 -0.453012 -0.566843)
(1.51895 -0.124931 -0.878343)
(0.995568 -0.0204547 0.0174311)
(0.880967 -0.220915 0.101343)
(0.71265 -0.433143 0.179207)
(0.561574 -0.644071 0.300642)
(-0.111174 -1.1726 -0.0615685)
(-0.290434 -1.26009 -0.548875)
(0.0278045 -0.78387 -0.792674)
(0.400226 -0.244364 -0.595003)
(-0.116567 0.1667 -0.449518)
(-0.366681 -0.246921 -0.0529412)
(-0.38401 -1.25404 0.237827)
(-0.376735 -1.61044 -0.219685)
(-0.0828322 -1.32498 -0.651939)
(0.350152 -0.968419 -0.80842)
(0.631104 -0.806808 -0.763762)
(0.741193 -0.745359 -0.532657)
(0.593125 -0.647641 -0.386858)
(0.787586 -0.57167 -0.897259)
(1.09877 -0.617087 -1.24967)
(1.28976 -0.676488 -1.12059)
(1.35169 -0.649646 -0.80277)
(1.30116 -0.514277 -0.543961)
(1.22074 -0.251474 -0.386792)
(1.09849 0.0823985 -0.471844)
(1.67942 0.206552 -0.811647)
(0.99058 -0.0253931 0.0208248)
(0.846052 -0.208873 0.117468)
(0.659856 -0.428791 0.221911)
(0.328713 -0.593295 0.333402)
(-0.687755 -1.18039 -0.253973)
(-0.64713 -1.14968 -0.797684)
(-0.312961 -0.484671 -1.00179)
(0.0175864 0.173185 -0.86944)
(-0.280034 0.452651 -0.559081)
(-0.450077 -0.321796 -0.0488053)
(-0.636376 -1.18588 0.128526)
(-0.649995 -1.46768 -0.288482)
(-0.300064 -1.00619 -0.72151)
(0.201399 -0.597482 -0.855625)
(0.584842 -0.411274 -0.801985)
(0.785143 -0.343185 -0.547241)
(0.597705 -0.203693 -0.280754)
(0.757227 0.01709 -0.777995)
(1.10338 0.0592373 -1.26773)
(1.33711 -0.00490713 -1.24402)
(1.44085 -0.0170579 -0.952558)
(1.4153 0.0956003 -0.644033)
(1.37911 0.305769 -0.374757)
(1.26435 0.530383 -0.342966)
(1.76475 0.596162 -0.685585)
(0.987323 -0.0254099 0.0246669)
(0.822359 -0.19266 0.129916)
(0.649445 -0.386105 0.267201)
(0.0085372 -0.473917 0.286145)
(-1.10738 -1.11545 -0.469651)
(-0.761135 -1.02102 -0.976387)
(-0.520624 -0.323177 -1.06201)
(-0.0958819 0.212369 -0.909274)
(-0.274924 0.407822 -0.468793)
(-0.53874 -0.341177 -0.122822)
(-0.775848 -0.9456 -0.00662845)
(-0.911946 -1.27517 -0.271649)
(-0.627406 -0.764157 -0.787207)
(0.0781078 -0.23452 -0.892548)
(0.597038 -0.0428368 -0.749771)
(0.897489 -0.00997957 -0.432521)
(0.584644 0.133057 -0.0562415)
(0.624127 0.518825 -0.507955)
(1.04187 0.727466 -1.19143)
(1.33652 0.718737 -1.31131)
(1.50173 0.687012 -1.04148)
(1.52666 0.743899 -0.686491)
(1.52286 0.866082 -0.380409)
(1.41345 0.97859 -0.274596)
(1.84692 0.944995 -0.604929)
(0.987487 -0.0251758 0.0282873)
(0.822164 -0.176218 0.139016)
(0.679654 -0.286364 0.306402)
(-0.32315 -0.344957 0.0941493)
(-1.22186 -1.02912 -0.560223)
(-0.727475 -0.895112 -0.997189)
(-0.5443 -0.274468 -1.053)
(-0.331453 0.129677 -1.05769)
(-0.456518 0.338433 -0.666166)
(-0.627213 -0.185683 -0.261346)
(-0.929233 -0.621983 -0.0537454)
(-1.14596 -1.10172 -0.206849)
(-0.729862 -0.482392 -0.748389)
(0.0788563 0.10306 -0.754181)
(0.622667 0.262231 -0.492884)
(0.927904 0.290089 -0.157856)
(0.539883 0.296093 0.182055)
(0.426793 0.869753 -0.0172656)
(0.941108 1.31803 -0.876184)
(1.29133 1.42625 -1.21885)
(1.52106 1.37544 -1.04119)
(1.62306 1.34305 -0.697154)
(1.67819 1.36841 -0.372026)
(1.56814 1.43948 -0.221182)
(1.88653 1.27562 -0.51162)
(0.985195 -0.0275303 0.0324128)
(0.84922 -0.165595 0.143829)
(0.738083 -0.13087 0.331524)
(-0.517178 -0.183392 -0.0644011)
(-1.25548 -0.940058 -0.554013)
(-0.719791 -0.958373 -0.90824)
(-0.393802 -0.546348 -1.00726)
(-0.307913 -0.00567002 -1.09112)
(-0.380587 0.0739393 -0.77388)
(-0.697283 -0.263272 -0.405934)
(-1.16499 -0.482443 -0.106518)
(-1.47761 -1.12531 -0.149505)
(-0.726818 -0.141482 -0.605208)
(-0.00220261 0.366125 -0.5475)
(0.57716 0.554103 -0.230608)
(0.850363 0.624628 0.0734645)
(0.662858 0.498686 0.260138)
(0.290464 0.883061 0.463341)
(0.810078 1.67371 -0.333302)
(1.2175 1.97496 -0.903211)
(1.48898 1.93652 -0.894607)
(1.66 1.82818 -0.613481)
(1.78617 1.76207 -0.295705)
(1.71918 1.7687 -0.106053)
(1.91955 1.55689 -0.343199)
(0.979496 -0.0366341 0.0374927)
(0.902977 -0.170205 0.143971)
(0.815715 0.0492899 0.323064)
(-0.445717 0.0829615 -0.158494)
(-1.28795 -0.763308 -0.461202)
(-0.881685 -0.987137 -0.776109)
(-0.425474 -0.727625 -0.923685)
(-0.297058 0.00245357 -1.02749)
(-0.19155 -0.169164 -0.875223)
(-0.751385 -0.298287 -0.534472)
(-1.28461 -0.460552 -0.240644)
(-1.65908 -1.10288 -0.27951)
(-0.939108 -0.0216074 -0.553579)
(-0.151093 0.492146 -0.430263)
(0.479462 0.651894 -0.142352)
(0.751522 0.707315 0.121151)
(0.870695 0.513306 0.186843)
(0.362513 0.550187 0.527339)
(0.643571 1.57329 0.226978)
(1.11673 2.22122 -0.446496)
(1.42231 2.27003 -0.610796)
(1.65111 2.12006 -0.440696)
(1.8604 1.98669 -0.169438)
(1.89562 1.95461 0.0355021)
(1.99262 1.77171 -0.134228)
(0.968088 -0.0541801 0.0425656)
(0.973299 -0.192139 0.148591)
(0.859931 0.189262 0.272485)
(-0.214509 0.347483 -0.0106288)
(-1.36217 -0.381924 -0.295502)
(-1.03232 -0.723567 -0.649156)
(-0.466934 -0.689105 -0.784049)
(-0.0806924 -0.216748 -0.948553)
(-0.0425863 -0.0860489 -1.013)
(-0.890287 -0.00794037 -0.667735)
(-1.19075 -0.266834 -0.488073)
(-1.60969 -0.828262 -0.509336)
(-1.14626 -0.0802999 -0.615595)
(-0.359333 0.363025 -0.45654)
(0.324625 0.481791 -0.203977)
(0.669188 0.448313 0.0315443)
(0.943309 0.218842 0.104842)
(0.555519 -0.113431 0.316876)
(0.419684 0.976557 0.555574)
(0.927737 2.00147 0.0268783)
(1.29827 2.28044 -0.253101)
(1.60079 2.17416 -0.202208)
(1.88941 1.99692 -0.014433)
(2.04412 1.93295 0.150438)
(2.19722 1.8798 0.0462735)
(0.968651 -0.0852555 0.0448727)
(1.00984 -0.197004 0.181192)
(0.678894 0.26299 0.204612)
(-0.491501 0.431122 0.0607989)
(-1.30783 -0.0955028 -0.179952)
(-1.18292 -0.539344 -0.517907)
(-0.678558 -0.670498 -0.672836)
(0.0413189 -0.348924 -0.950952)
(-0.338455 0.235094 -1.00979)
(-0.932552 0.127663 -0.793947)
(-0.765297 -0.178194 -0.829397)
(-1.26147 -0.617855 -0.763076)
(-0.980171 -0.122753 -0.749206)
(-0.380181 0.14324 -0.58263)
(0.215787 0.203703 -0.353375)
(0.622374 0.143202 -0.123884)
(0.870712 0.099426 0.059422)
(0.608665 -0.0920236 0.231286)
(0.0957675 0.172565 0.615088)
(0.575127 1.39638 0.391565)
(1.0305 1.90601 0.113615)
(1.40752 1.90133 0.0862207)
(1.78583 1.74605 0.183987)
(2.07455 1.68376 0.27541)
(2.44188 1.7651 0.187084)
(1.03271 -0.095616 0.0450404)
(0.862242 -0.0459039 0.205833)
(-0.361722 0.738504 0.287231)
(-0.858197 0.559394 0.0676914)
(-0.83761 0.0111585 -0.0433979)
(-1.16696 -0.443817 -0.472088)
(-0.8522 -0.519492 -0.604207)
(-0.15934 -0.0226207 -1.09864)
(-0.752113 0.654858 -1.07112)
(-1.30388 0.19916 -0.968887)
(-0.539712 0.0974152 -1.25301)
(-0.327998 0.0904854 -1.3144)
(-0.289297 0.264299 -1.12645)
(0.0810634 0.411981 -0.912276)
(0.515257 0.425153 -0.656016)
(0.880576 0.396999 -0.44813)
(1.10848 0.336927 -0.235956)
(0.930465 0.157582 -0.0409148)
(-0.0522311 -0.126141 0.389939)
(0.0672677 0.631969 0.552575)
(0.566327 1.24347 0.399081)
(1.01576 1.35704 0.358371)
(1.49242 1.25368 0.390162)
(1.88037 1.19754 0.421315)
(2.61192 1.38473 0.320904)
(0.941891 -0.0686308 0.0582384)
(0.474267 0.0376977 0.141277)
(0.755651 0.808902 0.821872)
(1.14901 0.667754 0.702139)
(0.629688 0.214639 0.47182)
(-0.82595 -0.19844 -0.203322)
(-1.3715 -0.428333 -0.270085)
(-1.34834 -0.0756575 -0.323945)
(-1.55118 0.752793 -0.279808)
(-1.35763 0.779783 -0.602986)
(-1.1359 0.659498 -0.696113)
(-1.18909 0.588393 -0.54568)
(-0.656776 0.415569 -0.671673)
(-0.27887 0.626991 -0.533677)
(0.239538 0.837082 -0.34184)
(0.497824 0.954806 -0.191681)
(0.638398 1.12485 -0.0242326)
(0.821191 1.36018 0.0394333)
(0.255121 0.946535 0.211607)
(-0.306894 0.0837192 0.475005)
(-0.237126 0.539823 0.486896)
(0.20833 0.651856 0.471432)
(0.922528 0.622685 0.490158)
(1.34613 0.580225 0.497534)
(2.71622 0.809327 0.4189)
(1.00597 0.00538757 0.027204)
(1.06167 -0.00341671 0.0496549)
(1.21956 0.000971981 0.0939074)
(1.38853 0.0135709 0.144992)
(1.46915 0.0122845 0.198906)
(1.52377 0.00756141 0.246629)
(1.54564 0.0254396 0.322554)
(1.44548 0.0460145 0.417953)
(1.53222 0.0737701 0.290578)
(1.45971 0.154213 0.23987)
(0.171409 0.331274 0.781904)
(-0.453581 0.115115 1.48265)
(-0.413182 -0.20721 1.67297)
(-0.177674 -0.377629 1.60443)
(0.169677 -0.449768 1.46289)
(0.509027 -0.451104 1.32658)
(0.804411 -0.414084 1.21003)
(1.05091 -0.368515 1.10411)
(1.20681 -0.309092 0.989775)
(1.20342 -0.213502 0.878076)
(1.01946 -0.0894571 0.77399)
(0.72685 -0.00124696 0.668492)
(0.537349 -0.0113979 0.535232)
(0.316127 -0.263185 0.491303)
(1.91493 -1.0051 0.607524)
(1.02456 0.00583916 0.0264055)
(1.08909 -0.0197098 0.0487453)
(1.25144 -0.0199928 0.0933192)
(1.40055 -0.0131388 0.13905)
(1.46939 -0.0388264 0.183034)
(1.57322 -0.0316638 0.251767)
(1.6274 0.00602689 0.343605)
(1.64439 -0.00439889 0.412433)
(2.02114 0.0971112 0.464818)
(1.62944 0.422636 0.770201)
(0.235333 0.568734 1.25119)
(0.403867 -0.325706 1.86808)
(0.716876 -0.985971 1.93241)
(1.02302 -1.21401 1.77975)
(1.32591 -1.24443 1.58699)
(1.57089 -1.17839 1.42719)
(1.74077 -1.06369 1.31988)
(1.8287 -0.936798 1.25516)
(1.76771 -0.779441 1.21509)
(1.46807 -0.563595 1.16085)
(0.973545 -0.347137 1.03767)
(0.523597 -0.299699 0.860232)
(0.410021 -0.474534 0.800854)
(0.813031 -1.01428 0.889377)
(1.42858 -1.59339 0.850929)
(1.02049 0.00350293 0.0259547)
(1.07553 -0.0342493 0.0486661)
(1.23551 -0.0422796 0.0904275)
(1.38419 -0.0445575 0.139044)
(1.46428 -0.0661918 0.187335)
(1.5456 -0.0475292 0.247045)
(1.57577 -0.008751 0.32024)
(1.71461 -0.112086 0.376893)
(2.06311 0.0871848 0.535549)
(1.47982 0.604649 0.894703)
(0.906666 0.366517 1.49453)
(1.32221 -0.739251 1.9454)
(1.58243 -1.52611 1.78228)
(1.73098 -1.76672 1.4977)
(1.86788 -1.74644 1.25107)
(1.97573 -1.6078 1.10267)
(2.04758 -1.42429 1.05865)
(2.06345 -1.24542 1.11322)
(1.90909 -1.03616 1.23461)
(1.49481 -0.785392 1.31887)
(0.996001 -0.634639 1.27869)
(0.727725 -0.741033 1.18779)
(0.772335 -1.04049 1.19459)
(1.25084 -1.64899 1.1664)
(1.11337 -1.98488 0.930968)
(1.02116 0.00266408 0.0258709)
(1.07529 -0.0460243 0.0483982)
(1.2332 -0.0588949 0.0910254)
(1.3787 -0.0634622 0.135409)
(1.46624 -0.071173 0.1777)
(1.53719 -0.0339275 0.227507)
(1.59891 -0.00777133 0.290674)
(1.82922 -0.176865 0.333329)
(2.05224 0.0824936 0.529549)
(1.52772 0.670634 0.997484)
(1.64365 0.0521968 1.55116)
(2.10073 -1.13853 1.68126)
(2.22244 -1.88432 1.35281)
(2.21282 -2.06571 0.991408)
(2.20767 -1.9927 0.746152)
(2.1979 -1.81076 0.662504)
(2.18378 -1.61095 0.7347)
(2.14428 -1.43873 0.958468)
(1.93035 -1.23672 1.25715)
(1.50958 -1.0431 1.45324)
(1.16609 -1.04638 1.46983)
(1.08723 -1.28224 1.42146)
(1.15131 -1.63204 1.4118)
(1.47358 -2.13874 1.25239)
(0.684113 -2.12225 0.898054)
(1.02001 0.0023943 0.0259004)
(1.07386 -0.0597079 0.0481498)
(1.22833 -0.0784296 0.0920241)
(1.37286 -0.099694 0.132375)
(1.46313 -0.118749 0.164181)
(1.52309 -0.070485 0.204177)
(1.63266 -0.0731927 0.263308)
(1.90086 -0.265984 0.284049)
(2.05396 0.0757684 0.508952)
(1.84992 0.520534 1.007)
(2.28434 -0.238332 1.37862)
(2.63743 -1.35552 1.25671)
(2.61885 -1.97998 0.809164)
(2.49427 -2.10034 0.430608)
(2.38702 -2.01922 0.259275)
(2.26949 -1.85547 0.304771)
(2.1789 -1.70512 0.534285)
(2.10703 -1.58851 0.9274)
(1.89201 -1.44386 1.3453)
(1.58597 -1.37384 1.57008)
(1.43884 -1.5216 1.58609)
(1.44708 -1.81467 1.53216)
(1.43513 -2.15 1.468)
(1.49904 -2.43649 1.18601)
(0.218766 -2.0805 0.789602)
(1.01926 0.00322293 0.0252081)
(1.07111 -0.075539 0.0488755)
(1.21793 -0.0973109 0.0936474)
(1.35829 -0.133274 0.134007)
(1.45574 -0.166385 0.162073)
(1.51943 -0.11979 0.201667)
(1.68193 -0.159444 0.273612)
(1.92725 -0.355378 0.255367)
(2.11225 0.0373115 0.467071)
(2.21505 0.299828 0.916441)
(2.70228 -0.473171 1.10302)
(2.89301 -1.42512 0.770837)
(2.75849 -1.90554 0.277834)
(2.56594 -2.01388 -0.0118523)
(2.39431 -1.98302 -0.0352563)
(2.18477 -1.87784 0.163122)
(2.06075 -1.81319 0.528628)
(2.0095 -1.77279 1.01936)
(1.87179 -1.71965 1.45097)
(1.748 -1.78558 1.62021)
(1.73936 -2.01691 1.5944)
(1.73607 -2.29681 1.50257)
(1.58576 -2.53947 1.36275)
(1.39306 -2.5337 0.989981)
(-0.154999 -1.925 0.639707)
(1.02093 0.00393003 0.0234301)
(1.06949 -0.0912179 0.0509269)
(1.20661 -0.118495 0.0934718)
(1.3372 -0.165012 0.130432)
(1.43441 -0.205836 0.159947)
(1.51847 -0.177064 0.209014)
(1.72311 -0.258464 0.278788)
(1.92003 -0.438841 0.231911)
(2.19969 -0.0286305 0.463376)
(2.47939 0.0725251 0.813818)
(2.85609 -0.629269 0.793672)
(2.85309 -1.40583 0.335407)
(2.63949 -1.82857 -0.0794411)
(2.42077 -1.96774 -0.212987)
(2.21545 -1.999 -0.0978188)
(1.99164 -1.96506 0.193925)
(1.91162 -1.98212 0.61682)
(1.93753 -2.01449 1.1147)
(1.93053 -2.05626 1.47465)
(1.9679 -2.2113 1.54469)
(1.99788 -2.45164 1.45837)
(1.91041 -2.65448 1.30596)
(1.60507 -2.74176 1.08848)
(1.24961 -2.45754 0.682695)
(-0.338739 -1.74256 0.45385)
(1.02327 0.00368535 0.0207961)
(1.06577 -0.106628 0.0541531)
(1.1919 -0.147231 0.0932069)
(1.31552 -0.204122 0.124046)
(1.40694 -0.256916 0.156816)
(1.50881 -0.248607 0.211974)
(1.72926 -0.348204 0.241462)
(1.91374 -0.501397 0.189818)
(2.26353 -0.127839 0.488497)
(2.59056 -0.101686 0.740385)
(2.7574 -0.711422 0.535894)
(2.5665 -1.42086 0.097498)
(2.33916 -1.80226 -0.173586)
(2.13095 -1.97373 -0.218439)
(1.95286 -2.05995 -0.0752364)
(1.78714 -2.0902 0.229322)
(1.80324 -2.17708 0.648172)
(1.92407 -2.26879 1.09238)
(2.04451 -2.37558 1.33201)
(2.16203 -2.5521 1.29317)
(2.14207 -2.73913 1.14437)
(1.94568 -2.82211 0.929688)
(1.53876 -2.74409 0.664447)
(1.14804 -2.27613 0.297925)
(-0.327783 -1.55404 0.226559)
(1.02381 0.00273978 0.018077)
(1.0596 -0.119612 0.0587833)
(1.17447 -0.17712 0.0948324)
(1.28894 -0.244346 0.123304)
(1.37254 -0.313901 0.162189)
(1.49792 -0.325885 0.21728)
(1.72229 -0.431694 0.18452)
(1.92367 -0.5405 0.153354)
(2.27695 -0.229366 0.490837)
(2.50596 -0.279544 0.622958)
(2.41116 -0.893091 0.377155)
(2.15254 -1.49062 0.0639489)
(1.9621 -1.83736 -0.159975)
(1.82439 -2.02084 -0.231891)
(1.73272 -2.13496 -0.119112)
(1.65248 -2.20774 0.169319)
(1.74869 -2.33868 0.550187)
(1.94344 -2.46356 0.891393)
(2.14337 -2.58714 0.982682)
(2.24976 -2.72703 0.85291)
(2.13657 -2.82508 0.664824)
(1.8691 -2.79316 0.419148)
(1.45901 -2.60635 0.160625)
(1.12101 -2.06698 -0.1131)
(-0.201103 -1.3492 -0.0567695)
(1.02261 0.00248848 0.0154392)
(1.05112 -0.131765 0.0653815)
(1.1564 -0.205238 0.103075)
(1.25463 -0.28362 0.134354)
(1.33239 -0.35927 0.184561)
(1.48704 -0.392908 0.232362)
(1.6903 -0.509424 0.128812)
(1.90387 -0.576114 0.124509)
(2.23471 -0.341345 0.418929)
(2.22426 -0.520718 0.474313)
(1.94226 -1.08203 0.313229)
(1.70129 -1.5853 0.0671195)
(1.60748 -1.88401 -0.208572)
(1.58542 -2.04565 -0.337618)
(1.58084 -2.15821 -0.246368)
(1.57376 -2.26386 0.0176659)
(1.71548 -2.41545 0.316678)
(1.95612 -2.54397 0.501973)
(2.17188 -2.64057 0.452234)
(2.20516 -2.71925 0.283393)
(2.01485 -2.73995 0.100981)
(1.74836 -2.64097 -0.1305)
(1.40554 -2.4209 -0.33236)
(1.10743 -1.8463 -0.531698)
(-0.0896194 -1.12363 -0.394646)
(1.02171 0.00274413 0.0135709)
(1.04301 -0.142437 0.0731755)
(1.1386 -0.22861 0.1178)
(1.21682 -0.319059 0.154457)
(1.29532 -0.390959 0.221881)
(1.47629 -0.441641 0.250144)
(1.64514 -0.569017 0.079012)
(1.85899 -0.611424 0.0546403)
(2.01272 -0.521459 0.254422)
(1.76519 -0.771365 0.379564)
(1.44439 -1.23937 0.3234)
(1.30092 -1.66631 0.0333937)
(1.33877 -1.89923 -0.346409)
(1.41279 -2.01094 -0.515437)
(1.44987 -2.10894 -0.426319)
(1.49994 -2.23855 -0.210093)
(1.67881 -2.38634 -0.0441149)
(1.94354 -2.49046 -0.0341404)
(2.119 -2.54734 -0.164306)
(2.06788 -2.59194 -0.30847)
(1.85228 -2.57687 -0.447008)
(1.62457 -2.44102 -0.637052)
(1.32653 -2.14882 -0.793797)
(1.06246 -1.53625 -0.98067)
(0.0350536 -0.841624 -0.830062)
(1.02171 0.00332498 0.011847)
(1.03721 -0.152922 0.084803)
(1.11778 -0.250663 0.137399)
(1.18004 -0.354013 0.18656)
(1.2826 -0.440341 0.272198)
(1.47617 -0.495063 0.268452)
(1.62805 -0.617373 0.0296705)
(1.75557 -0.682237 -0.0941848)
(1.58854 -0.670765 0.108589)
(1.27681 -0.914944 0.421909)
(1.02651 -1.35009 0.386607)
(1.00589 -1.71635 -0.0575872)
(1.14078 -1.86307 -0.548309)
(1.25024 -1.90605 -0.72485)
(1.29605 -1.97917 -0.636241)
(1.39087 -2.11433 -0.506628)
(1.62249 -2.24189 -0.506217)
(1.89322 -2.31217 -0.638233)
(1.98985 -2.35657 -0.777434)
(1.85771 -2.36532 -0.859792)
(1.63148 -2.28466 -0.946285)
(1.44101 -2.08279 -1.09742)
(1.19338 -1.74081 -1.21984)
(0.979053 -1.12487 -1.4137)
(0.184691 -0.511962 -1.25442)
(1.02203 0.00237692 0.0109264)
(1.03304 -0.159699 0.100515)
(1.09482 -0.271712 0.161696)
(1.15304 -0.392095 0.234067)
(1.29663 -0.520868 0.335078)
(1.46588 -0.586228 0.279895)
(1.58793 -0.674804 -0.0371076)
(1.5246 -0.735114 -0.256388)
(1.11268 -0.716813 0.109446)
(0.895301 -0.996203 0.589167)
(0.72781 -1.44308 0.423031)
(0.788603 -1.73493 -0.215536)
(0.956607 -1.7694 -0.780068)
(1.06462 -1.72895 -0.947414)
(1.1133 -1.76002 -0.865754)
(1.24137 -1.8748 -0.837766)
(1.52334 -1.98059 -1.01134)
(1.77484 -2.02422 -1.24205)
(1.77247 -2.02421 -1.33924)
(1.57128 -1.96972 -1.33101)
(1.34746 -1.8403 -1.35083)
(1.19898 -1.60651 -1.45336)
(1.02016 -1.24688 -1.54884)
(0.881454 -0.672105 -1.74735)
(0.386065 -0.192347 -1.558)
(1.02292 0.000417479 0.0109094)
(1.03062 -0.163187 0.120963)
(1.07181 -0.293608 0.194436)
(1.14388 -0.439683 0.303029)
(1.29691 -0.630686 0.417554)
(1.41961 -0.689198 0.312429)
(1.41174 -0.742482 -0.155444)
(1.13766 -0.726091 -0.334582)
(0.642464 -0.677171 0.219642)
(0.603646 -1.06214 0.760138)
(0.506965 -1.51653 0.382265)
(0.599361 -1.70939 -0.419204)
(0.760838 -1.61319 -1.02389)
(0.862834 -1.47387 -1.17902)
(0.911543 -1.45043 -1.08604)
(1.0539 -1.52185 -1.12653)
(1.37442 -1.59394 -1.46668)
(1.61412 -1.6055 -1.77548)
(1.52978 -1.56747 -1.79264)
(1.27063 -1.47588 -1.6552)
(1.04864 -1.32374 -1.58871)
(0.939897 -1.07647 -1.64028)
(0.84901 -0.745324 -1.71791)
(0.821756 -0.269891 -1.89887)
(0.655304 0.0500711 -1.66858)
(1.02477 -0.00291901 0.0126727)
(1.02903 -0.161876 0.144949)
(1.05242 -0.312403 0.235145)
(1.15639 -0.483183 0.391875)
(1.23868 -0.735063 0.504748)
(1.30863 -0.737459 0.325742)
(1.1323 -0.741786 -0.253453)
(0.65022 -0.665507 -0.327744)
(0.218958 -0.586918 0.315726)
(0.378057 -1.12128 0.844316)
(0.332795 -1.53613 0.277513)
(0.413829 -1.62333 -0.64167)
(0.558123 -1.39522 -1.27141)
(0.66707 -1.15188 -1.40095)
(0.713603 -1.0663 -1.26938)
(0.853764 -1.08493 -1.28903)
(1.20875 -1.12238 -1.75248)
(1.48551 -1.11035 -2.16356)
(1.36627 -1.04705 -2.11271)
(1.05792 -0.946935 -1.83782)
(0.82853 -0.805305 -1.68322)
(0.750255 -0.588036 -1.68829)
(0.754785 -0.326725 -1.73475)
(0.856373 0.00986834 -1.82115)
(0.90836 0.23084 -1.64152)
(1.02682 -0.00609636 0.0157981)