/*--------------------------------*- C++ -*----------------------------------*\
| =========                 |                                                 |
| \\      /  F ield         | OpenFOAM: The Open Source CFD Toolbox           |
|  \\    /   O peration     | Version:  2306                                  |
|   \\  /    A nd           | Website:  www.openfoam.com                      |
|    \\/     M anipulation  |                                                 |
\*---------------------------------------------------------------------------*/
FoamFile
{
    version     2.0;
    format      ascii;
    arch        "LSB;label=32;scalar=64";
    class       volScalarField;
    location    "2.7";
    object      p;
}
// * * * * * * * * * * * * * * * * * * * * * * * * * * * * * * * * * * * * * //

dimensions      [0 2 -2 0 0 0 0];

internalField   nonuniform List<scalar> 
288632
(
52.4894
52.4807
52.4902
52.5108
52.54
52.5761
52.6216
52.6507
52.7435
52.711
52.8479
52.8176
52.8679
-0.855671
-0.767975
-0.906532
-0.682855
-0.707348
-0.595265
-0.510326
-0.420511
-0.328288
-0.234834
-0.141199
-0.0472105
52.4826
52.479
52.4894
52.5101
52.5393
52.5755
52.621
52.6504
52.743
52.7112
52.8471
52.8168
52.8679
-0.856203
-0.768675
-0.908016
-0.683928
-0.708455
-0.596244
-0.511139
-0.421178
-0.328806
-0.235202
-0.14142
-0.0472849
52.4799
52.477
52.4877
52.5085
52.5377
52.5739
52.6195
52.6494
52.7417
52.7117
52.8459
52.8163
52.8684
-0.85835
-0.77144
-0.910847
-0.686372
-0.71072
-0.598202
-0.512792
-0.422528
-0.329852
-0.235946
-0.141865
-0.0474331
52.476
52.4741
52.4853
52.5061
52.5354
52.5716
52.6173
52.6478
52.7396
52.7119
52.8438
52.8164
52.8689
-0.862227
-0.775396
-0.915028
-0.689988
-0.714086
-0.601107
-0.515256
-0.42454
-0.331411
-0.237055
-0.142527
-0.0476535
52.4721
52.4708
52.4821
52.5031
52.5323
52.5685
52.6143
52.6457
52.7369
52.7118
52.8416
52.8163
52.8692
-0.867649
-0.780961
-0.920516
-0.694827
-0.718525
-0.604934
-0.5185
-0.427188
-0.333462
-0.238513
-0.1434
-0.0479433
52.468
52.467
52.4785
52.4994
52.5285
52.5647
52.6105
52.643
52.7335
52.7115
52.839
52.8163
52.8696
-0.874506
-0.787732
-0.92721
-0.700755
-0.723955
-0.609623
-0.522478
-0.430435
-0.335977
-0.240302
-0.144469
-0.0482985
52.4637
52.4628
52.4743
52.4951
52.5241
52.5602
52.6061
52.6397
52.7295
52.7114
52.8358
52.8164
52.8701
-0.882692
-0.795795
-0.935045
-0.707727
-0.730315
-0.615116
-0.527136
-0.434238
-0.338923
-0.242397
-0.145722
-0.0487146
52.4591
52.4583
52.4697
52.4903
52.5191
52.5552
52.6011
52.6359
52.7249
52.711
52.8329
52.8167
52.8708
-0.892075
-0.804917
-0.943888
-0.715625
-0.737507
-0.621333
-0.532408
-0.438543
-0.342258
-0.244769
-0.14714
-0.0491856
52.4543
52.4535
52.4647
52.4851
52.5137
52.5496
52.5955
52.6317
52.72
52.7097
52.8307
52.8174
52.872
-0.902499
-0.81501
-0.953625
-0.724339
-0.745432
-0.628187
-0.53822
-0.443288
-0.345935
-0.247384
-0.148704
-0.049705
52.4494
52.4485
52.4594
52.4795
52.5078
52.5436
52.5895
52.6271
52.7147
52.7084
52.8291
52.8186
52.874
-0.913803
-0.825901
-0.964106
-0.733739
-0.753971
-0.635577
-0.544487
-0.448406
-0.3499
-0.250205
-0.15039
-0.0502652
52.4444
52.4433
52.454
52.4737
52.5017
52.5373
52.5832
52.6223
52.7093
52.7072
52.8279
52.8205
52.8768
-0.925809
-0.837426
-0.975178
-0.743682
-0.762999
-0.643393
-0.551117
-0.45382
-0.354096
-0.25319
-0.152175
-0.050858
52.4393
52.4381
52.4484
52.4678
52.4953
52.5307
52.5766
52.6173
52.7037
52.7064
52.8273
52.8234
52.8808
-0.93833
-0.849404
-0.98667
-0.754016
-0.772378
-0.651516
-0.558008
-0.45945
-0.358458
-0.256293
-0.154031
-0.0514746
52.4343
52.4328
52.4428
52.4618
52.4889
52.524
52.57
52.6122
52.6982
52.706
52.8276
52.8276
52.8863
-0.951173
-0.861647
-0.998403
-0.76458
-0.781964
-0.659822
-0.565056
-0.465207
-0.362921
-0.259469
-0.15593
-0.0521055
52.4294
52.4277
52.4373
52.4558
52.4825
52.5174
52.5634
52.6073
52.6929
52.7062
52.8289
52.8332
52.8935
-0.96413
-0.873959
-1.01019
-0.775207
-0.791606
-0.668179
-0.572149
-0.471003
-0.367414
-0.262665
-0.157843
-0.0527408
52.4247
52.4228
52.432
52.45
52.4762
52.5108
52.5569
52.6025
52.688
52.7069
52.8315
52.8404
52.9026
-0.977001
-0.886147
-1.02185
-0.785727
-0.801149
-0.676455
-0.579174
-0.476744
-0.371865
-0.265833
-0.159737
-0.0533704
52.4203
52.4181
52.4269
52.4444
52.4701
52.5045
52.5507
52.598
52.6834
52.7083
52.8353
52.8492
52.9135
-0.989572
-0.898011
-1.03319
-0.79597
-0.810439
-0.684514
-0.586016
-0.482338
-0.376203
-0.26892
-0.161584
-0.053984
52.4162
52.4138
52.4221
52.4391
52.4644
52.4985
52.5448
52.5939
52.6794
52.7103
52.8404
52.8598
52.9263
-1.00165
-0.909364
-1.04402
-0.80577
-0.819323
-0.692224
-0.592564
-0.487691
-0.380354
-0.271875
-0.163352
-0.0545715
52.4126
52.4099
52.4178
52.4342
52.4591
52.493
52.5394
52.5902
52.676
52.7128
52.8466
52.8714
52.9405
-1.01302
-0.920012
-1.05416
-0.814964
-0.82765
-0.699456
-0.598707
-0.492714
-0.38425
-0.274648
-0.165011
-0.0551229
52.4095
52.4065
52.4139
52.4298
52.4542
52.488
52.5345
52.587
52.6732
52.7157
52.8537
52.8836
52.9558
-1.02352
-0.929808
-1.06344
-0.823402
-0.835283
-0.706089
-0.604342
-0.497322
-0.387824
-0.277192
-0.166533
-0.0556288
52.407
52.4036
52.4105
52.426
52.45
52.4835
52.5303
52.5843
52.671
52.7188
52.8612
52.8959
52.9714
-1.03296
-0.938557
-1.0717
-0.830933
-0.842087
-0.712008
-0.60937
-0.501435
-0.391015
-0.279463
-0.167892
-0.0560804
52.4053
52.4014
52.4077
52.4227
52.4464
52.4797
52.5267
52.582
52.6694
52.7219
52.8687
52.9079
52.9866
-1.04121
-0.946179
-1.07881
-0.837453
-0.847954
-0.717114
-0.613706
-0.504981
-0.393766
-0.281422
-0.169064
-0.0564699
52.4044
52.3998
52.4055
52.4201
52.4434
52.4767
52.5238
52.5803
52.6682
52.7247
52.8756
52.9188
53.0005
-1.04814
-0.952464
-1.08463
-0.842818
-0.852768
-0.72131
-0.617272
-0.507898
-0.39603
-0.283034
-0.170028
-0.0567902
52.405
52.3989
52.4039
52.4182
52.4412
52.4744
52.5216
52.5791
52.6675
52.7271
52.8814
52.9279
53.0122
-1.05365
-0.957484
-1.08908
-0.846981
-0.856468
-0.724531
-0.620009
-0.510136
-0.397766
-0.284269
-0.170767
-0.0570355
52.4045
52.3982
52.4029
52.4169
52.4398
52.4729
52.5202
52.5783
52.6671
52.7288
52.8855
52.9346
53.021
-1.05764
-0.960797
-1.09206
-0.849805
-0.858971
-0.726705
-0.621863
-0.511653
-0.398942
-0.285107
-0.171268
-0.0572015
52.4114
52.3989
52.4025
52.4164
52.4391
52.4722
52.5196
52.578
52.667
52.73
52.8884
52.9379
53.0267
-1.06005
-0.963182
-1.09351
-0.851361
-0.860263
-0.7278
-0.622814
-0.512427
-0.399541
-0.285533
-0.171522
-0.0572847
52.4817
52.4779
52.4883
52.5089
52.5381
52.5742
52.6196
52.6488
52.7414
52.7094
52.8453
52.8153
52.8667
-0.85854
-0.770844
-0.909621
-0.685331
-0.708983
-0.596725
-0.511185
-0.420985
-0.328489
-0.23487
-0.141165
-0.0471802
52.475
52.476
52.4876
52.5082
52.5374
52.5735
52.619
52.6485
52.7408
52.7107
52.8408
52.8145
52.867
-0.859029
-0.771571
-0.911133
-0.686428
-0.710111
-0.597721
-0.512011
-0.421662
-0.329015
-0.235244
-0.141389
-0.0472556
52.4725
52.4739
52.4859
52.5066
52.5358
52.5719
52.6175
52.6475
52.7394
52.7117
52.8386
52.814
52.8676
-0.86121
-0.774389
-0.914015
-0.688914
-0.712411
-0.599709
-0.513688
-0.42303
-0.330074
-0.235997
-0.14184
-0.0474055
52.4685
52.4712
52.4833
52.5042
52.5334
52.5696
52.6152
52.6459
52.7372
52.7119
52.8361
52.8139
52.8681
-0.865146
-0.778422
-0.91827
-0.692593
-0.71583
-0.602658
-0.516186
-0.425069
-0.331653
-0.237119
-0.142511
-0.0476285
52.4646
52.4679
52.4802
52.5011
52.5303
52.5664
52.6121
52.6436
52.7343
52.7116
52.8336
52.8137
52.8685
-0.870647
-0.784088
-0.923854
-0.697512
-0.720338
-0.606542
-0.519476
-0.427753
-0.333731
-0.238596
-0.143394
-0.0479218
52.4604
52.4642
52.4765
52.4974
52.5264
52.5626
52.6082
52.6408
52.7307
52.7111
52.8308
52.8136
52.8687
-0.877602
-0.790984
-0.930666
-0.703541
-0.725854
-0.611303
-0.523511
-0.431045
-0.33628
-0.240408
-0.144477
-0.0482815
52.4561
52.46
52.4722
52.493
52.522
52.558
52.6037
52.6373
52.7265
52.7104
52.8278
52.8135
52.8691
-0.885906
-0.799196
-0.938639
-0.710631
-0.732315
-0.616879
-0.528236
-0.4349
-0.339265
-0.24253
-0.145745
-0.0487027
52.4515
52.4554
52.4676
52.4882
52.5169
52.5528
52.5985
52.6333
52.7217
52.7092
52.8249
52.8135
52.8697
-0.895423
-0.808485
-0.94764
-0.718664
-0.739625
-0.623193
-0.533587
-0.439266
-0.342645
-0.244933
-0.147182
-0.0491797
52.4468
52.4506
52.4626
52.483
52.5114
52.5471
52.5928
52.6289
52.7164
52.7075
52.8223
52.8138
52.8707
-0.905996
-0.818764
-0.957553
-0.727529
-0.747679
-0.630155
-0.539486
-0.44408
-0.346373
-0.247584
-0.148766
-0.0497059
52.4418
52.4455
52.4573
52.4774
52.5055
52.541
52.5866
52.624
52.7108
52.7057
52.82
52.8145
52.8723
-0.917463
-0.829857
-0.968226
-0.737093
-0.75636
-0.637663
-0.545849
-0.449273
-0.350394
-0.250444
-0.150476
-0.0502736
52.4368
52.4403
52.4518
52.4715
52.4992
52.5345
52.58
52.6188
52.7049
52.7041
52.818
52.8159
52.8747
-0.929643
-0.841598
-0.979503
-0.747212
-0.76554
-0.645606
-0.552581
-0.454768
-0.354651
-0.25347
-0.152285
-0.0508745
52.4317
52.4351
52.4462
52.4655
52.4928
52.5278
52.5732
52.6135
52.6989
52.7026
52.8166
52.8182
52.8783
-0.942348
-0.853801
-0.991209
-0.757731
-0.77508
-0.653863
-0.559581
-0.460483
-0.359078
-0.256618
-0.154168
-0.0514997
52.4267
52.4298
52.4406
52.4594
52.4862
52.5209
52.5663
52.608
52.6929
52.7014
52.816
52.8218
52.8833
-0.955378
-0.866274
-1.00316
-0.768485
-0.784833
-0.662308
-0.566742
-0.466329
-0.363607
-0.25984
-0.156094
-0.0521396
52.4218
52.4247
52.435
52.4533
52.4797
52.5141
52.5594
52.6026
52.687
52.7006
52.8163
52.8267
52.8899
-0.968528
-0.878822
-1.01518
-0.779306
-0.794645
-0.670807
-0.573951
-0.472217
-0.368169
-0.263085
-0.158034
-0.0527842
52.417
52.4197
52.4296
52.4474
52.4733
52.5073
52.5526
52.5973
52.6814
52.7004
52.8178
52.8331
52.8982
-0.981588
-0.89124
-1.02706
-0.790019
-0.804358
-0.679225
-0.581093
-0.47805
-0.37269
-0.266301
-0.159958
-0.0534231
52.4126
52.415
52.4245
52.4418
52.4671
52.5008
52.546
52.5923
52.6762
52.7007
52.8205
52.8411
52.9084
-0.994347
-0.903331
-1.03861
-0.800453
-0.813816
-0.687425
-0.588051
-0.483735
-0.377096
-0.269435
-0.161832
-0.054046
52.4085
52.4106
52.4197
52.4364
52.4612
52.4946
52.5398
52.5877
52.6715
52.7016
52.8245
52.8507
52.9205
-1.0066
-0.914901
-1.04965
-0.810436
-0.822861
-0.695271
-0.594711
-0.489177
-0.381314
-0.272437
-0.163628
-0.0546425
52.4049
52.4067
52.4153
52.4315
52.4557
52.4889
52.5341
52.5835
52.6674
52.703
52.8295
52.8613
52.9341
-1.01814
-0.925753
-1.05998
-0.819801
-0.831343
-0.702632
-0.600961
-0.494285
-0.385274
-0.275254
-0.165313
-0.0552025
52.4018
52.4033
52.4113
52.427
52.4508
52.4836
52.529
52.5797
52.664
52.7048
52.8354
52.8725
52.9487
-1.02879
-0.935735
-1.06945
-0.828399
-0.839117
-0.709384
-0.606694
-0.498971
-0.388908
-0.27784
-0.16686
-0.0557165
52.3993
52.4004
52.4079
52.4231
52.4464
52.479
52.5244
52.5766
52.6612
52.7068
52.8418
52.8839
52.9637
-1.03838
-0.94465
-1.07787
-0.836072
-0.846048
-0.715411
-0.611811
-0.503154
-0.392152
-0.280149
-0.168241
-0.0561754
52.3976
52.3982
52.4051
52.4198
52.4427
52.4751
52.5206
52.5739
52.6591
52.709
52.8482
52.8951
52.9782
-1.04674
-0.952415
-1.08512
-0.842715
-0.852026
-0.720609
-0.616224
-0.506762
-0.39495
-0.28214
-0.169432
-0.0565712
52.3967
52.3965
52.4029
52.4171
52.4397
52.4719
52.5175
52.5719
52.6575
52.711
52.8541
52.9052
52.9916
-1.05377
-0.958817
-1.09105
-0.848182
-0.856931
-0.724882
-0.619854
-0.509731
-0.397252
-0.283778
-0.170412
-0.0568967
52.3972
52.3956
52.4013
52.4151
52.4374
52.4695
52.5151
52.5704
52.6564
52.7127
52.8592
52.9137
53.0029
-1.05935
-0.963925
-1.09559
-0.852422
-0.860701
-0.728161
-0.622639
-0.512008
-0.399017
-0.285035
-0.171164
-0.0571462
52.3967
52.395
52.4002
52.4138
52.4359
52.4679
52.5136
52.5694
52.6558
52.714
52.8629
52.92
53.0114
-1.0634
-0.9673
-1.09863
-0.855298
-0.863251
-0.730375
-0.624527
-0.513551
-0.400214
-0.285886
-0.171673
-0.0573149
52.4035
52.3957
52.3998
52.4133
52.4353
52.4672
52.5129
52.569
52.6556
52.7146
52.8665
52.9222
53.0164
-1.06584
-0.96971
-1.10011
-0.856877
-0.864563
-0.731487
-0.625493
-0.514337
-0.400822
-0.286319
-0.171931
-0.0573994
52.4768
52.4738
52.4844
52.5051
52.5341
52.5701
52.6153
52.6448
52.7368
52.7062
52.8403
52.8114
52.8639
-0.865053
-0.777795
-0.91549
-0.690153
-0.711964
-0.599291
-0.512621
-0.421683
-0.328685
-0.234785
-0.140993
-0.0470763
52.4703
52.4718
52.4836
52.5043
52.5334
52.5694
52.6147
52.6444
52.7362
52.708
52.8348
52.8105
52.8643
-0.865562
-0.778565
-0.917047
-0.691291
-0.713125
-0.600316
-0.51347
-0.422378
-0.329224
-0.235167
-0.141222
-0.0471533
52.4675
52.4699
52.4819
52.5027
52.5318
52.5678
52.6131
52.6433
52.7346
52.7087
52.8326
52.81
52.865
-0.86782
-0.781484
-0.920026
-0.693859
-0.715495
-0.602361
-0.515193
-0.423782
-0.33031
-0.235938
-0.141683
-0.0473066
52.4635
52.4671
52.4794
52.5003
52.5293
52.5653
52.6107
52.6416
52.7322
52.7086
52.83
52.8097
52.8654
-0.871886
-0.785669
-0.924426
-0.697661
-0.719019
-0.605397
-0.51776
-0.425875
-0.331929
-0.237088
-0.14237
-0.0475348
52.4595
52.4637
52.4762
52.4971
52.5261
52.5621
52.6075
52.6391
52.729
52.708
52.8271
52.8092
52.8656
-0.877572
-0.791542
-0.930202
-0.702743
-0.723666
-0.609396
-0.521142
-0.42863
-0.33406
-0.238602
-0.143274
-0.0478351
52.4554
52.4599
52.4725
52.4933
52.5222
52.558
52.6034
52.636
52.725
52.707
52.8239
52.8086
52.8655
-0.884758
-0.798693
-0.937252
-0.708974
-0.729354
-0.614298
-0.525291
-0.432011
-0.336675
-0.24046
-0.144384
-0.0482035
52.451
52.4557
52.4682
52.4889
52.5176
52.5533
52.5986
52.6322
52.7204
52.7055
52.8203
52.8079
52.8654
-0.893337
-0.807206
-0.945506
-0.716303
-0.736019
-0.620044
-0.530152
-0.435972
-0.339739
-0.242636
-0.145684
-0.0486351
52.4464
52.4511
52.4635
52.484
52.5124
52.5479
52.5931
52.6278
52.7151
52.7036
52.8166
52.8071
52.8653
-0.90317
-0.816839
-0.954828
-0.724609
-0.743563
-0.626551
-0.535659
-0.44046
-0.34321
-0.245102
-0.147158
-0.0491242
52.4416
52.4462
52.4584
52.4786
52.5067
52.542
52.5871
52.6228
52.7092
52.7011
52.8128
52.8065
52.8654
-0.914095
-0.827499
-0.965096
-0.733778
-0.751879
-0.63373
-0.541733
-0.44541
-0.34704
-0.247824
-0.148784
-0.049664
52.4366
52.4411
52.4531
52.4729
52.5006
52.5356
52.5804
52.6174
52.7028
52.6984
52.809
52.806
52.8659
-0.925945
-0.839007
-0.976157
-0.743674
-0.760847
-0.641476
-0.548288
-0.450754
-0.351174
-0.250761
-0.150539
-0.0502466
52.4316
52.4358
52.4475
52.4669
52.4942
52.5288
52.5734
52.6115
52.696
52.6955
52.8053
52.8059
52.867
-0.938534
-0.851189
-0.987846
-0.754148
-0.770335
-0.649674
-0.555228
-0.456412
-0.355552
-0.253872
-0.152398
-0.0508638
52.4265
52.4305
52.4418
52.4607
52.4875
52.5217
52.5661
52.6054
52.6889
52.6926
52.8019
52.8065
52.8689
-0.951668
-0.863853
-0.999986
-0.76504
-0.7802
-0.658202
-0.562448
-0.462299
-0.360109
-0.25711
-0.154333
-0.0515063
52.4214
52.4252
52.4361
52.4545
52.4807
52.5145
52.5586
52.599
52.6817
52.6897
52.7991
52.8081
52.8719
-0.96514
-0.876801
-1.01239
-0.77618
-0.79029
-0.666927
-0.569838
-0.468326
-0.364774
-0.260425
-0.156315
-0.0521643
52.4164
52.42
52.4305
52.4483
52.4739
52.5072
52.5511
52.5927
52.6746
52.687
52.7969
52.8108
52.8762
-0.978737
-0.889827
-1.02485
-0.787393
-0.800445
-0.675714
-0.577282
-0.474398
-0.369474
-0.263767
-0.158312
-0.0528275
52.4116
52.415
52.425
52.4422
52.4672
52.5001
52.5436
52.5864
52.6676
52.6847
52.7957
52.8148
52.8821
-0.992239
-0.902722
-1.03719
-0.798498
-0.810504
-0.68442
-0.58466
-0.480418
-0.374135
-0.26708
-0.160292
-0.0534852
52.4071
52.4102
52.4197
52.4364
52.4608
52.4931
52.5364
52.5803
52.661
52.6828
52.7956
52.8198
52.8897
-1.00543
-0.915278
-1.04918
-0.809317
-0.820303
-0.692905
-0.591852
-0.486288
-0.37868
-0.270311
-0.162224
-0.0541269
52.403
52.4058
52.4148
52.4309
52.4546
52.4865
52.5295
52.5746
52.6549
52.6814
52.7966
52.8264
52.8988
-1.0181
-0.927293
-1.06065
-0.819671
-0.829677
-0.701027
-0.598739
-0.49191
-0.383034
-0.273407
-0.164075
-0.0547416
52.3993
52.4018
52.4103
52.4258
52.4489
52.4803
52.5231
52.5694
52.6495
52.6805
52.7987
52.8337
52.9094
-1.03003
-0.938564
-1.07138
-0.829387
-0.83847
-0.70865
-0.605204
-0.497189
-0.387123
-0.276314
-0.165814
-0.0553191
52.3962
52.3983
52.4063
52.4212
52.4437
52.4747
52.5173
52.5646
52.6447
52.6801
52.8018
52.8418
52.921
-1.04105
-0.94893
-1.08122
-0.838307
-0.846534
-0.715645
-0.611137
-0.502034
-0.390877
-0.278984
-0.16741
-0.0558494
52.3937
52.3954
52.4028
52.4172
52.4391
52.4697
52.5122
52.5605
52.6406
52.6801
52.8055
52.8503
52.9331
-1.05095
-0.958188
-1.08996
-0.84627
-0.853724
-0.72189
-0.616435
-0.506361
-0.394229
-0.281368
-0.168836
-0.056323
52.3919
52.3932
52.4
52.4137
52.4352
52.4655
52.5079
52.557
52.6374
52.6803
52.8094
52.8587
52.945
-1.0596
-0.966249
-1.0975
-0.853163
-0.859926
-0.727278
-0.621005
-0.510094
-0.397122
-0.283425
-0.170066
-0.0567317
52.391
52.3915
52.3977
52.411
52.4321
52.462
52.5043
52.5542
52.6348
52.6808
52.8132
52.8664
52.956
-1.06686
-0.972896
-1.10366
-0.858835
-0.865017
-0.731707
-0.624765
-0.513166
-0.399503
-0.285119
-0.171078
-0.057068
52.3915
52.3906
52.3961
52.4089
52.4297
52.4594
52.5016
52.5521
52.6329
52.6812
52.8166
52.8729
52.9652
-1.07263
-0.978194
-1.10838
-0.863233
-0.86893
-0.735107
-0.627651
-0.515523
-0.401329
-0.286417
-0.171855
-0.0573258
52.391
52.3899
52.3949
52.4076
52.4281
52.4576
52.4998
52.5507
52.6318
52.6815
52.819
52.8777
52.972
-1.07681
-0.981698
-1.11154
-0.866218
-0.871576
-0.737403
-0.629606
-0.51712
-0.402566
-0.287298
-0.172381
-0.0575002
52.3977
52.3906
52.3945
52.407
52.4274
52.4568
52.499
52.5501
52.6313
52.6817
52.8217
52.8806
52.9759
-1.07932
-0.984186
-1.11308
-0.86785
-0.872938
-0.738556
-0.630607
-0.517934
-0.403196
-0.287745
-0.172648
-0.0575877
52.4698
52.4678
52.4787
52.4993
52.5281
52.5638
52.6089
52.6386
52.7298
52.701
52.8326
52.8059
52.859
-0.875796
-0.787968
-0.924035
-0.697281
-0.716272
-0.602965
-0.514625
-0.422589
-0.328857
-0.234561
-0.140668
-0.0468951
52.4632
52.4659
52.4778
52.4985
52.5274
52.5631
52.6082
52.6382
52.729
52.7028
52.8267
52.805
52.8595
-0.876363
-0.788815
-0.925665
-0.698482
-0.717484
-0.604034
-0.515507
-0.42331
-0.329415
-0.234956
-0.140904
-0.0469743
52.4604
52.4639
52.4761
52.4968
52.5257
52.5614
52.6065
52.6369
52.7273
52.7031
52.8244
52.8042
52.8601
-0.878752
-0.791894
-0.928793
-0.701175
-0.71996
-0.606165
-0.5173
-0.424768
-0.330541
-0.235755
-0.141381
-0.0471326
52.4564
52.461
52.4736
52.4944
52.5232
52.5589
52.6039
52.635
52.7246
52.7028
52.8212
52.8036
52.8604
-0.883036
-0.796316
-0.933413
-0.705162
-0.723641
-0.60933
-0.519971
-0.426941
-0.332219
-0.236946
-0.142092
-0.0473686
52.4524
52.4576
52.4704
52.4911
52.5199
52.5554
52.6004
52.6322
52.721
52.7017
52.8177
52.8026
52.8601
-0.88902
-0.802505
-0.939482
-0.710492
-0.728498
-0.613502
-0.523491
-0.429803
-0.33443
-0.238515
-0.143028
-0.0476793
52.4482
52.4537
52.4666
52.4872
52.5158
52.5512
52.5961
52.6287
52.7165
52.7001
52.8137
52.8014
52.8594
-0.89658
-0.810046
-0.946893
-0.717029
-0.734446
-0.618619
-0.527812
-0.433318
-0.337144
-0.240441
-0.144178
-0.0480608
52.4438
52.4494
52.4623
52.4827
52.511
52.5462
52.5909
52.6244
52.7112
52.6977
52.8092
52.7997
52.8584
-0.905601
-0.819018
-0.955573
-0.724719
-0.74142
-0.624619
-0.532877
-0.437438
-0.340327
-0.242699
-0.145526
-0.048508
52.4392
52.4448
52.4575
52.4777
52.5056
52.5405
52.585
52.6193
52.7051
52.6946
52.8042
52.7977
52.8571
-0.915942
-0.829175
-0.965382
-0.733439
-0.749317
-0.631419
-0.538619
-0.442109
-0.343935
-0.24526
-0.147055
-0.0490152
52.4343
52.4398
52.4523
52.4721
52.4997
52.5342
52.5784
52.6136
52.6982
52.6909
52.7987
52.7955
52.8557
-0.927435
-0.840417
-0.976192
-0.74307
-0.75803
-0.638925
-0.544958
-0.447266
-0.347919
-0.248087
-0.148744
-0.0495753
52.4293
52.4347
52.4468
52.4663
52.4933
52.5274
52.5712
52.6073
52.6906
52.6866
52.7927
52.793
52.8541
-0.939905
-0.852558
-0.987844
-0.753471
-0.767432
-0.647031
-0.551803
-0.452837
-0.352223
-0.251142
-0.150568
-0.0501805
52.4242
52.4293
52.4411
52.4601
52.4866
52.5202
52.5635
52.6004
52.6824
52.6818
52.7865
52.7906
52.8527
-0.953153
-0.865413
-1.00016
-0.764485
-0.777387
-0.655616
-0.559057
-0.45874
-0.356784
-0.25438
-0.152502
-0.0508222
52.419
52.4239
52.4353
52.4537
52.4796
52.5126
52.5554
52.5931
52.6738
52.6765
52.78
52.7884
52.8514
-0.96698
-0.878782
-1.01297
-0.775945
-0.787746
-0.664554
-0.56661
-0.464889
-0.361536
-0.257753
-0.154516
-0.0514907
52.4139
52.4185
52.4294
52.4473
52.4724
52.5048
52.547
52.5854
52.6648
52.671
52.7735
52.7866
52.8507
-0.981165
-0.892455
-1.02605
-0.787673
-0.798348
-0.673706
-0.574347
-0.471189
-0.366406
-0.26121
-0.156581
-0.052176
52.4088
52.4132
52.4237
52.4408
52.4653
52.497
52.5385
52.5776
52.6557
52.6652
52.7673
52.7853
52.8507
-0.995483
-0.906214
-1.03921
-0.799483
-0.809028
-0.682929
-0.582146
-0.477541
-0.371316
-0.264697
-0.158664
-0.0528673
52.404
52.4081
52.418
52.4345
52.4582
52.4892
52.5301
52.5698
52.6467
52.6596
52.7617
52.7847
52.8518
-1.0097
-0.919837
-1.05224
-0.811187
-0.819613
-0.692074
-0.589883
-0.483844
-0.37619
-0.268158
-0.160731
-0.0535536
52.3994
52.4033
52.4127
52.4285
52.4514
52.4816
52.5219
52.5622
52.6379
52.6541
52.757
52.7848
52.8541
-1.0236
-0.933104
-1.06491
-0.822593
-0.82993
-0.700992
-0.597431
-0.489995
-0.380946
-0.271536
-0.16275
-0.0542236
52.3953
52.3988
52.4076
52.4227
52.4448
52.4744
52.514
52.5548
52.6296
52.6491
52.7532
52.786
52.8576
-1.03694
-0.945801
-1.07702
-0.833514
-0.839807
-0.709535
-0.604663
-0.49589
-0.385506
-0.274775
-0.164685
-0.0548661
52.3915
52.3947
52.403
52.4174
52.4388
52.4676
52.5066
52.5479
52.6219
52.6445
52.7504
52.7879
52.8624
-1.04952
-0.957712
-1.08837
-0.843765
-0.849076
-0.717558
-0.611457
-0.501429
-0.389791
-0.277819
-0.166504
-0.0554701
52.3883
52.3912
52.3989
52.4126
52.4332
52.4613
52.4999
52.5416
52.6149
52.6406
52.7487
52.7907
52.8682
-1.06111
-0.968665
-1.09877
-0.853179
-0.85758
-0.724923
-0.617696
-0.506516
-0.393728
-0.280615
-0.168175
-0.0560251
52.3858
52.3882
52.3953
52.4084
52.4283
52.4558
52.4938
52.536
52.6089
52.6372
52.7479
52.7941
52.8747
-1.07155
-0.978444
-1.10802
-0.861583
-0.865166
-0.731501
-0.623269
-0.511062
-0.397245
-0.283115
-0.169669
-0.0565212
52.384
52.3859
52.3923
52.4048
52.4241
52.4511
52.4887
52.5312
52.6038
52.6345
52.7476
52.7977
52.8811
-1.08066
-0.986956
-1.11599
-0.868859
-0.871712
-0.737178
-0.628079
-0.514985
-0.400282
-0.285273
-0.170959
-0.0569495
52.383
52.3842
52.39
52.4019
52.4207
52.4472
52.4845
52.5273
52.5996
52.6323
52.7477
52.8009
52.8871
-1.0883
-0.993973
-1.12251
-0.874846
-0.877086
-0.741846
-0.632037
-0.518215
-0.402782
-0.287049
-0.172021
-0.0573021
52.3835
52.3832
52.3883
52.3997
52.4181
52.4443
52.4813
52.5243
52.5965
52.6307
52.748
52.8037
52.8921
-1.09435
-0.999554
-1.1275
-0.879487
-0.881218
-0.745431
-0.635076
-0.520694
-0.4047
-0.288413
-0.172835
-0.0575725
52.383
52.3825
52.3871
52.3983
52.4164
52.4423
52.4791
52.5223
52.5944
52.6297
52.7481
52.8057
52.8955
-1.09874
-1.00325
-1.13085
-0.882635
-0.884012
-0.747852
-0.637135
-0.522375
-0.406001
-0.289337
-0.173388
-0.0577556
52.3895
52.3833
52.3867
52.3977
52.4157
52.4414
52.4781
52.5214
52.5935
52.6293
52.7487
52.8069
52.8973
-1.10135
-1.00584
-1.13248
-0.884349
-0.885451
-0.749068
-0.638188
-0.52323
-0.406662
-0.289807
-0.173668
-0.0578477
52.4617
52.4602
52.4712
52.4916
52.5202
52.5556
52.6003
52.6303
52.7204
52.6936
52.8227
52.7984
52.852
-0.89054
-0.801675
-0.935307
-0.706717
-0.721856
-0.607667
-0.517117
-0.423625
-0.328938
-0.234149
-0.140161
-0.0466259
52.4551
52.4584
52.4703
52.4908
52.5194
52.5548
52.5995
52.6298
52.7195
52.6953
52.8166
52.7974
52.8525
-0.89119
-0.802625
-0.937032
-0.708001
-0.723136
-0.608793
-0.518045
-0.424381
-0.329522
-0.234562
-0.140407
-0.046708
52.4523
52.4563
52.4686
52.4891
52.5177
52.553
52.5977
52.6284
52.7175
52.6953
52.814
52.7964
52.853
-0.893766
-0.80592
-0.940361
-0.710862
-0.725752
-0.611041
-0.51993
-0.425909
-0.3307
-0.235396
-0.140904
-0.0468731
52.4482
52.4534
52.466
52.4866
52.515
52.5503
52.5949
52.6261
52.7144
52.6946
52.8103
52.7953
52.8528
-0.898354
-0.810665
-0.945281
-0.7151
-0.729645
-0.61438
-0.52274
-0.42819
-0.332458
-0.236642
-0.141647
-0.0471193
52.4442
52.4499
52.4628
52.4833
52.5116
52.5466
52.5911
52.6229
52.7103
52.6929
52.806
52.7936
52.8519
-0.904751
-0.817285
-0.951747
-0.720765
-0.734784
-0.618784
-0.526444
-0.431195
-0.334775
-0.238283
-0.142626
-0.0474438
52.44
52.446
52.4589
52.4793
52.5073
52.5421
52.5864
52.6189
52.7052
52.6904
52.8009
52.7914
52.8503
-0.912828
-0.825356
-0.959647
-0.727714
-0.741081
-0.624187
-0.530995
-0.434888
-0.337621
-0.2403
-0.143829
-0.0478426
52.4356
52.4416
52.4545
52.4746
52.5023
52.5368
52.5807
52.6139
52.699
52.6869
52.795
52.7884
52.848
-0.922471
-0.834953
-0.968906
-0.735893
-0.74847
-0.630529
-0.536333
-0.43922
-0.340962
-0.242667
-0.145241
-0.0483106
52.4309
52.4369
52.4496
52.4694
52.4967
52.5308
52.5742
52.6081
52.6918
52.6824
52.7882
52.7847
52.845
-0.933523
-0.845824
-0.979377
-0.745174
-0.756845
-0.637722
-0.54239
-0.444136
-0.344752
-0.245354
-0.146843
-0.0488418
52.426
52.4318
52.4442
52.4636
52.4904
52.524
52.5669
52.6014
52.6836
52.6769
52.7803
52.7802
52.8412
-0.945809
-0.857858
-0.990924
-0.75543
-0.766093
-0.645669
-0.549084
-0.44957
-0.348942
-0.248323
-0.148615
-0.0494291
52.4209
52.4266
52.4386
52.4575
52.4837
52.5166
52.5589
52.5938
52.6745
52.6704
52.7714
52.7749
52.8366
-0.95914
-0.870861
-1.00338
-0.766514
-0.776083
-0.65426
-0.556321
-0.455446
-0.353473
-0.251535
-0.150531
-0.0500644
52.4157
52.4212
52.4328
52.4511
52.4766
52.5088
52.5503
52.5856
52.6645
52.6628
52.7614
52.7689
52.8312
-0.973312
-0.884635
-1.01656
-0.778262
-0.78667
-0.663369
-0.563997
-0.46168
-0.358282
-0.254944
-0.152565
-0.0507388
52.4104
52.4156
52.4268
52.4445
52.4692
52.5006
52.5411
52.5767
52.6537
52.6542
52.7504
52.7622
52.8251
-0.988103
-0.898967
-1.03027
-0.790494
-0.797697
-0.67286
-0.571999
-0.46818
-0.363296
-0.258498
-0.154686
-0.0514422
52.4052
52.4101
52.4208
52.4378
52.4616
52.4921
52.5316
52.5673
52.6423
52.6448
52.7387
52.7551
52.8184
-1.00328
-0.913629
-1.04428
-0.803022
-0.808995
-0.68259
-0.580204
-0.474848
-0.368441
-0.262146
-0.156863
-0.0521642
52.4001
52.4047
52.4148
52.431
52.454
52.4835
52.5219
52.5575
52.6305
52.6347
52.7266
52.7473
52.8113
-1.01861
-0.928388
-1.05839
-0.815646
-0.820387
-0.692405
-0.588486
-0.481578
-0.373635
-0.265829
-0.159061
-0.0528933
52.3952
52.3995
52.409
52.4245
52.4464
52.4749
52.5122
52.5476
52.6185
52.6242
52.7145
52.7391
52.8042
-1.03383
-0.943007
-1.07236
-0.828165
-0.831687
-0.702147
-0.59671
-0.488265
-0.378796
-0.269489
-0.161246
-0.0536181
52.3906
52.3946
52.4035
52.4181
52.439
52.4665
52.5026
52.5378
52.6066
52.6137
52.7028
52.731
52.7975
-1.0487
-0.957246
-1.08596
-0.840373
-0.842711
-0.711655
-0.60474
-0.494796
-0.383838
-0.273066
-0.163381
-0.0543264
52.3863
52.39
52.3983
52.4121
52.432
52.4584
52.4934
52.5282
52.5951
52.6034
52.6918
52.7234
52.7916
-1.06299
-0.970875
-1.09896
-0.852067
-0.853273
-0.720771
-0.612442
-0.501062
-0.388677
-0.276498
-0.16543
-0.0550064
52.3825
52.3858
52.3935
52.4065
52.4255
52.4508
52.4847
52.5191
52.5842
52.5936
52.6818
52.7166
52.7865
-1.07644
-0.983661
-1.11115
-0.863049
-0.863191
-0.729338
-0.619684
-0.506955
-0.393229
-0.279727
-0.167358
-0.0556463
52.3793
52.3822
52.3892
52.4014
52.4195
52.4438
52.4766
52.5106
52.574
52.5846
52.673
52.7105
52.7823
-1.08885
-0.995415
-1.12232
-0.873136
-0.872296
-0.737208
-0.626338
-0.512372
-0.397413
-0.282696
-0.169131
-0.0562348
52.3767
52.3791
52.3855
52.3969
52.4141
52.4375
52.4694
52.5031
52.565
52.5764
52.6653
52.7052
52.7787
-1.10001
-1.00591
-1.13226
-0.882144
-0.880423
-0.74424
-0.632286
-0.517215
-0.401155
-0.285352
-0.170717
-0.0567613
52.3748
52.3767
52.3824
52.3931
52.4096
52.4322
52.4632
52.4965
52.5572
52.5694
52.6585
52.7004
52.7755
-1.10974
-1.01504
-1.14082
-0.889943
-0.887438
-0.750312
-0.637423
-0.521398
-0.404388
-0.287646
-0.172088
-0.0572162
52.3738
52.375
52.38
52.3901
52.4059
52.4278
52.4581
52.491
52.5507
52.5635
52.6529
52.6959
52.7724
-1.11791
-1.02256
-1.14783
-0.896359
-0.893199
-0.755306
-0.641652
-0.524843
-0.40705
-0.289536
-0.173217
-0.0575909
52.3742
52.374
52.3782
52.3878
52.4031
52.4244
52.4542
52.4868
52.5456
52.559
52.6484
52.6918
52.7693
-1.12437
-1.02852
-1.1532
-0.901331
-0.897629
-0.759143
-0.644899
-0.527488
-0.409095
-0.290987
-0.174083
-0.0578785
52.3737
52.3733
52.377
52.3862
52.4012
52.4222
52.4516
52.484
52.5421
52.5558
52.6448
52.6885
52.7663
-1.12905
-1.03249
-1.15679
-0.904703
-0.900626
-0.761734
-0.6471
-0.529282
-0.410481
-0.291972
-0.174671
-0.0580735
52.3802
52.374
52.3765
52.3856
52.4003
52.4212
52.4503
52.4827
52.5404
52.5546
52.6435
52.6848
52.7638
-1.13184
-1.03521
-1.15856
-0.90653
-0.902169
-0.763036
-0.648225
-0.530195
-0.411186
-0.292473
-0.174971
-0.0581719
52.4524
52.4512
52.4621
52.4823
52.5104
52.5453
52.5896
52.6199
52.7088
52.6841
52.8107
52.7889
52.843
-0.90935
-0.818948
-0.949284
-0.718433
-0.728638
-0.613283
-0.519992
-0.424687
-0.32884
-0.233482
-0.13943
-0.0462548
52.4458
52.4493
52.4612
52.4814
52.5095
52.5444
52.5887
52.6193
52.7077
52.6857
52.8043
52.7878
52.8434
-0.910112
-0.820032
-0.951131
-0.719822
-0.730004
-0.614482
-0.520976
-0.425486
-0.329455
-0.233916
-0.139688
-0.0463406
52.443
52.4472
52.4594
52.4796
52.5077
52.5425
52.5867
52.6177
52.7054
52.6854
52.8014
52.7864
52.8436
-0.912933
-0.823606
-0.954715
-0.722896
-0.732798
-0.616875
-0.522976
-0.427103
-0.330698
-0.234795
-0.140211
-0.0465138
52.4389
52.4442
52.4568
52.477
52.505
52.5396
52.5836
52.615
52.7019
52.684
52.797
52.7847
52.8429
-0.917917
-0.828764
-0.960016
-0.727453
-0.736957
-0.620432
-0.525959
-0.429516
-0.332555
-0.236107
-0.140993
-0.0467727
52.4349
52.4407
52.4535
52.4736
52.5013
52.5358
52.5795
52.6114
52.6971
52.6816
52.7917
52.7822
52.8412
-0.924853
-0.835934
-0.966987
-0.73354
-0.74245
-0.625126
-0.529894
-0.4327
-0.335003
-0.237839
-0.142024
-0.0471143
52.4306
52.4367
52.4495
52.4694
52.4969
52.5309
52.5743
52.6067
52.6912
52.678
52.7853
52.7787
52.8384
-0.933609
-0.844685
-0.975512
-0.741013
-0.749189
-0.630891
-0.534731
-0.436614
-0.338014
-0.239969
-0.143293
-0.0475345
52.4261
52.4323
52.445
52.4646
52.4916
52.5252
52.5681
52.6009
52.6839
52.6731
52.7777
52.7741
52.8344
-0.944058
-0.855083
-0.98551