/*--------------------------------*- C++ -*----------------------------------*\
| =========                 |                                                 |
| \\      /  F ield         | OpenFOAM: The Open Source CFD Toolbox           |
|  \\    /   O peration     | Version:  2306                                  |
|   \\  /    A nd           | Website:  www.openfoam.com                      |
|    \\/     M anipulation  |                                                 |
\*---------------------------------------------------------------------------*/
FoamFile
{
    version     2.0;
    format      ascii;
    arch        "LSB;label=32;scalar=64";
    class       volScalarField;
    location    "2";
    object      p;
}
// * * * * * * * * * * * * * * * * * * * * * * * * * * * * * * * * * * * * * //

dimensions      [0 2 -2 0 0 0 0];

internalField   nonuniform List<scalar> 
288632
(
45.8322
45.8236
45.8322
45.8515
45.879
45.9136
45.9562
45.9872
46.0916
46.0135
46.2151
46.1288
46.1988
-0.359474
-0.269531
-0.503027
-0.267731
-0.339517
-0.284416
-0.241791
-0.198563
-0.154585
-0.110317
-0.0664251
-0.0222888
45.8257
45.8218
45.8313
45.8507
45.8782
45.9128
45.9555
45.9867
46.0908
46.0132
46.2141
46.1277
46.1986
-0.360118
-0.269253
-0.504285
-0.268562
-0.340445
-0.285236
-0.242474
-0.199122
-0.155018
-0.110625
-0.0666095
-0.0223512
45.8226
45.8196
45.8295
45.849
45.8765
45.9111
45.9539
45.9855
46.0889
46.0131
46.2125
46.1266
46.1986
-0.361786
-0.271931
-0.506615
-0.27065
-0.342335
-0.286879
-0.243856
-0.200248
-0.155889
-0.111243
-0.066979
-0.0224742
45.8186
45.8165
45.8268
45.8464
45.874
45.9086
45.9514
45.9836
46.0861
46.0126
46.2097
46.1258
46.1984
-0.364532
-0.274845
-0.510118
-0.273617
-0.345135
-0.289307
-0.245912
-0.201923
-0.157185
-0.112163
-0.0675285
-0.0226567
45.8144
45.8129
45.8234
45.843
45.8706
45.9051
45.948
45.981
46.0823
46.0119
46.2061
46.1247
46.1979
-0.368961
-0.279677
-0.514727
-0.277692
-0.348831
-0.292509
-0.248619
-0.204128
-0.158889
-0.113373
-0.068251
-0.0228964
45.8099
45.8088
45.8193
45.8389
45.8664
45.9009
45.9438
45.9777
46.0776
46.0111
46.2018
46.1234
46.1972
-0.374639
-0.285255
-0.520351
-0.282653
-0.353351
-0.296433
-0.251938
-0.206831
-0.160979
-0.114856
-0.0691366
-0.0231901
45.8052
45.8041
45.8147
45.8342
45.8615
45.896
45.9389
45.9739
46.072
46.0101
46.1969
46.1221
46.1964
-0.38151
-0.292079
-0.526936
-0.288513
-0.358647
-0.301032
-0.255825
-0.209997
-0.163426
-0.116594
-0.0701736
-0.0235339
45.8001
45.7991
45.8096
45.8289
45.856
45.8904
45.9333
45.9694
46.0656
46.0089
46.1917
46.1209
46.1957
-0.389423
-0.299756
-0.534369
-0.295161
-0.364642
-0.306241
-0.260228
-0.213583
-0.166197
-0.11856
-0.0713475
-0.0239231
45.7949
45.7937
45.8041
45.8231
45.85
45.8842
45.9271
45.9644
46.0587
46.0076
46.1864
46.1199
46.1954
-0.398237
-0.308281
-0.542564
-0.302508
-0.371254
-0.311988
-0.265084
-0.217536
-0.169253
-0.120729
-0.0726418
-0.0243522
45.7894
45.7881
45.7982
45.8169
45.8435
45.8775
45.9204
45.959
46.0513
46.0054
46.1822
46.1194
46.1957
-0.40782
-0.317505
-0.551399
-0.310447
-0.378388
-0.31819
-0.270324
-0.221802
-0.172549
-0.123068
-0.0740378
-0.024815
45.7837
45.7823
45.7921
45.8105
45.8366
45.8704
45.9134
45.9532
46.0435
46.0028
46.1793
46.1196
46.197
-0.418024
-0.32729
-0.560748
-0.31886
-0.385941
-0.324757
-0.275871
-0.226317
-0.176038
-0.125544
-0.0755153
-0.0253048
45.7781
45.7765
45.7859
45.8038
45.8296
45.8631
45.9061
45.9473
46.0357
46.0008
46.1767
46.1209
46.1995
-0.428693
-0.337487
-0.570471
-0.327619
-0.393799
-0.331589
-0.281642
-0.231015
-0.179666
-0.128119
-0.077052
-0.0258141
45.7724
45.7706
45.7796
45.7971
45.8224
45.8556
45.8986
45.9413
46.0279
45.9994
46.1751
46.1236
46.2036
-0.439668
-0.347936
-0.580418
-0.33659
-0.401843
-0.338582
-0.287548
-0.235822
-0.18338
-0.130753
-0.0786244
-0.0263354
45.7668
45.7648
45.7734
45.7904
45.8151
45.8481
45.8912
45.9354
46.0205
45.9988
46.1746
46.1279
46.2096
-0.450772
-0.358472
-0.590437
-0.345631
-0.409947
-0.345626
-0.293498
-0.240664
-0.187121
-0.133407
-0.0802079
-0.0268603
45.7615
45.7592
45.7674
45.7838
45.8081
45.8407
45.8839
45.9296
46.0135
45.999
46.1756
46.1342
46.2178
-0.461835
-0.36893
-0.600363
-0.354598
-0.417981
-0.35261
-0.299397
-0.245464
-0.190828
-0.136037
-0.0817773
-0.0273805
45.7564
45.7539
45.7616
45.7774
45.8012
45.8336
45.8768
45.9242
46.0072
46
46.1782
46.1426
46.2282
-0.47267
-0.37914
-0.610038
-0.363347
-0.425815
-0.359419
-0.305147
-0.250144
-0.194442
-0.138601
-0.0833072
-0.0278876
45.7518
45.749
45.7562
45.7715
45.7947
45.8268
45.8702
45.9191
46.0016
46.0019
46.1822
46.1532
46.241
-0.483108
-0.388937
-0.619298
-0.371734
-0.433317
-0.365942
-0.310655
-0.254625
-0.197904
-0.141057
-0.0847723
-0.0283732
45.7476
45.7445
45.7512
45.7659
45.7886
45.8204
45.864
45.9145
45.9969
46.0046
46.1877
46.1652
46.2557
-0.49297
-0.398153
-0.627986
-0.379617
-0.440361
-0.372067
-0.315828
-0.258833
-0.201154
-0.143362
-0.0861476
-0.0288291
45.744
45.7406
45.7467
45.7609
45.7831
45.8146
45.8584
45.9104
45.9931
46.0079
46.1944
46.1784
46.2716
-0.502101
-0.406663
-0.635956
-0.386867
-0.446827
-0.377691
-0.320576
-0.262696
-0.204137
-0.145478
-0.08741
-0.0292474
45.7411
45.7373
45.7429
45.7565
45.7782
45.8095
45.8535
45.9069
45.9901
46.0116
46.2019
46.1919
46.2882
-0.510344
-0.414282
-0.643055
-0.39335
-0.452597
-0.382715
-0.324817
-0.266147
-0.206801
-0.147367
-0.0885373
-0.029621
45.739
45.7346
45.7397
45.7528
45.7741
45.8052
45.8493
45.904
45.9879
46.0153
46.2095
46.205
46.3045
-0.517572
-0.420972
-0.649179
-0.39898
-0.45758
-0.387053
-0.328477
-0.269123
-0.209099
-0.148997
-0.0895097
-0.0299431
45.7379
45.7327
45.7371
45.7498
45.7707
45.8016
45.8459
45.9017
45.9863
46.0188
46.2168
46.217
46.3196
-0.523669
-0.426475
-0.654191
-0.403615
-0.461672
-0.39062
-0.331489
-0.271574
-0.210991
-0.150339
-0.0903099
-0.0302081
45.7379
45.7315
45.7353
45.7475
45.7682
45.7989
45.8434
45.9
45.9853
46.0218
46.223
46.2272
46.3326
-0.528544
-0.430971
-0.658026
-0.407237
-0.464819
-0.393364
-0.333802
-0.273454
-0.212443
-0.151368
-0.0909235
-0.0304111
45.7377
45.7308
45.7341
45.7461
45.7665
45.7972
45.8417
45.8989
45.9848
46.0239
46.2275
46.2347
46.3425
-0.532123
-0.43389
-0.660592
-0.409681
-0.46695
-0.395215
-0.335369
-0.274729
-0.213427
-0.152066
-0.0913394
-0.0305485
45.7435
45.7314
45.7336
45.7454
45.7657
45.7964
45.8409
45.8985
45.9847
46.0255
46.2306
46.2386
46.349
-0.534365
-0.436196
-0.661808
-0.411061
-0.468048
-0.396151
-0.336171
-0.27538
-0.213928
-0.152421
-0.0915502
-0.0306172
45.825
45.821
45.8304
45.8498
45.8773
45.9118
45.9544
45.9855
46.0895
46.0117
46.2127
46.1265
46.1976
-0.361105
-0.270902
-0.50486
-0.269342
-0.340357
-0.285292
-0.24229
-0.198799
-0.154644
-0.110276
-0.0663565
-0.0222502
45.8186
45.8191
45.8296
45.849
45.8765
45.911
45.9537
45.985
46.0887
46.0125
46.2081
46.1253
46.1976
-0.361714
-0.270643
-0.506137
-0.270193
-0.341302
-0.286127
-0.242984
-0.199365
-0.155082
-0.110588
-0.0665434
-0.0223133
45.8155
45.8169
45.8277
45.8472
45.8748
45.9093
45.952
45.9838
46.0867
46.0126
46.2056
46.1243
46.1978
-0.363381
-0.273386
-0.508511
-0.272317
-0.343222
-0.287794
-0.244385
-0.200506
-0.155964
-0.111213
-0.0669171
-0.0224377
45.8114
45.8139
45.825
45.8446
45.8722
45.9067
45.9495
45.9818
46.0838
46.0122
46.2022
46.1233
46.1976
-0.366198
-0.276363
-0.512077
-0.275336
-0.346065
-0.290259
-0.24647
-0.202204
-0.157276
-0.112145
-0.0674732
-0.0226223
45.8072
45.8103
45.8216
45.8412
45.8687
45.9032
45.946
45.9791
46.0798
46.0116
46.198
46.122
46.1971
-0.370695
-0.28128
-0.516764
-0.27948
-0.349819
-0.293509
-0.249214
-0.204438
-0.159002
-0.113369
-0.0682042
-0.0228648
45.8028
45.8061
45.8175
45.8371
45.8645
45.8989
45.9417
45.9757
46.0749
46.0108
46.193
46.1206
46.1963
-0.376456
-0.286962
-0.522486
-0.284525
-0.354409
-0.297491
-0.25258
-0.207178
-0.161119
-0.114871
-0.0691006
-0.023162
45.798
45.8014
45.8128
45.8323
45.8596
45.8939
45.9367
45.9716
46.069
46.01
46.1872
46.1191
46.1953
-0.383425
-0.29391
-0.529186
-0.290485
-0.359789
-0.30216
-0.256524
-0.210387
-0.163598
-0.116631
-0.0701503
-0.02351
45.793
45.7964
45.8077
45.827
45.854
45.8882
45.9309
45.9669
46.0623
46.008
46.1819
46.1176
46.1945
-0.391452
-0.30173
-0.536751
-0.297247
-0.365881
-0.307449
-0.26099
-0.214022
-0.166406
-0.118622
-0.0713389
-0.0239039
45.7877
45.791
45.8021
45.8211
45.8478
45.8818
45.9245
45.9617
46.055
46.0054
46.1771
46.1163
46.194
-0.400395
-0.310415
-0.545093
-0.304722
-0.3726
-0.313286
-0.265918
-0.218031
-0.169503
-0.120819
-0.0726498
-0.0243384
45.7822
45.7854
45.7962
45.8149
45.8412
45.875
45.9176
45.9559
46.0472
46.0025
46.1726
46.1153
46.1939
-0.410118
-0.319812
-0.55409
-0.3128
-0.379853
-0.319586
-0.271237
-0.222358
-0.172844
-0.12319
-0.0740641
-0.024807
45.7765
45.7795
45.79
45.8083
45.8343
45.8678
45.9103
45.9498
46.039
45.9996
46.1685
46.115
46.1948
-0.420473
-0.329784
-0.563612
-0.321363
-0.387533
-0.326258
-0.276869
-0.22694
-0.176382
-0.125699
-0.0755612
-0.0253032
45.7708
45.7736
45.7838
45.8016
45.8271
45.8603
45.9027
45.9435
46.0306
45.997
46.165
46.1156
46.1968
-0.431305
-0.340177
-0.573517
-0.330281
-0.395526
-0.333202
-0.28273
-0.231707
-0.180063
-0.12831
-0.0771188
-0.0258193
45.7651
45.7677
45.7775
45.7948
45.8198
45.8526
45.895
45.9371
46.0222
45.9948
46.1624
46.1175
46.2002
-0.442444
-0.350828
-0.583654
-0.339415
-0.40371
-0.340312
-0.288731
-0.236588
-0.183831
-0.130982
-0.078713
-0.0263477
45.7596
45.7619
45.7712
45.788
45.8124
45.8449
45.8872
45.9306
46.0141
45.9932
46.1609
46.121
46.2055
-0.45372
-0.361573
-0.593866
-0.348624
-0.411958
-0.347476
-0.294777
-0.241505
-0.187628
-0.133674
-0.080319
-0.0268799
45.7542
45.7563
45.7651
45.7813
45.8052
45.8372
45.8795
45.9244
46.0064
45.9924
46.1608
46.1263
46.213
-0.464951
-0.372237
-0.603986
-0.35776
-0.420137
-0.35458
-0.300773
-0.24638
-0.191391
-0.136343
-0.0819111
-0.0274075
45.7491
45.7509
45.7593
45.7749
45.7982
45.8298
45.8721
45.9183
45.9994
45.9924
46.1622
46.1337
46.2227
-0.475957
-0.38265
-0.613851
-0.366675
-0.428114
-0.361508
-0.30662
-0.251135
-0.195062
-0.138946
-0.0834636
-0.027922
45.7445
45.746
45.7538
45.7688
45.7915
45.8228
45.8651
45.9127
45.9931
45.9932
46.1651
46.1431
46.2346
-0.486553
-0.392644
-0.623297
-0.375222
-0.435755
-0.368146
-0.312221
-0.25569
-0.198578
-0.141439
-0.0849505
-0.0284147
45.7403
45.7415
45.7488
45.7632
45.7853
45.8162
45.8586
45.9075
45.9878
45.9948
46.1695
46.1541
46.2486
-0.49657
-0.402044
-0.63216
-0.383257
-0.442931
-0.374381
-0.317482
-0.259968
-0.20188
-0.14378
-0.0863468
-0.0288774
45.7367
45.7375
45.7443
45.7581
45.7796
45.8102
45.8526
45.9029
45.9833
45.997
46.1751
46.1661
46.2639
-0.505842
-0.410726
-0.640292
-0.390648
-0.44952
-0.380106
-0.322314
-0.263896
-0.204911
-0.145929
-0.0876286
-0.029302
45.7337
45.7342
45.7404
45.7536
45.7747
45.8049
45.8474
45.8989
45.9797
45.9996
46.1814
46.1787
46.2799
-0.514216
-0.418497
-0.647537
-0.397258
-0.455401
-0.385222
-0.326629
-0.267404
-0.207619
-0.147848
-0.0887736
-0.0296813
45.7316
45.7315
45.7371
45.7498
45.7704
45.8004
45.8429
45.8955
45.9769
46.0024
46.188
46.1908
46.2957
-0.52155
-0.42532
-0.653787
-0.402997
-0.460479
-0.38964
-0.330354
-0.270432
-0.209955
-0.149505
-0.0897613
-0.0300085
45.7304
45.7296
45.7346
45.7468
45.7669
45.7967
45.8393
45.8928
45.9749
46.0052
46.1944
46.2021
46.3104
-0.527743
-0.430931
-0.658903
-0.407724
-0.464651
-0.393273
-0.33342
-0.272925
-0.211879
-0.150868
-0.0905743
-0.0302777
45.7304
45.7284
45.7327
45.7445
45.7643
45.7939
45.8366
45.8908
45.9735
46.0075
46.2
46.2116
46.323
-0.532692
-0.435508
-0.662818
-0.411415
-0.467859
-0.396067
-0.335775
-0.274838
-0.213354
-0.151914
-0.0911977
-0.0304839
45.7303
45.7277
45.7315
45.743
45.7626
45.792
45.8347
45.8895
45.9727
46.0091
46.2042
46.2187
46.3325
-0.536322
-0.438487
-0.665438
-0.413907
-0.470031
-0.397952
-0.33737
-0.276135
-0.214355
-0.152623
-0.0916203
-0.0306234
45.736
45.7282
45.731
45.7423
45.7618
45.7912
45.8339
45.889
45.9725
46.0099
46.2084
46.2219
46.3383
-0.538598
-0.440809
-0.66668
-0.415307
-0.471147
-0.398903
-0.338185
-0.276796
-0.214864
-0.152984
-0.0918343
-0.0306932
45.8201
45.8171
45.8269
45.8463
45.8737
45.9081
45.9506
45.9818
46.0851
46.0086
46.208
46.1226
46.1949
-0.364775
-0.275209
-0.508211
-0.27245
-0.341782
-0.286732
-0.243035
-0.199053
-0.154583
-0.110062
-0.066131
-0.0221374
45.8138
45.8152
45.826
45.8454
45.8729
45.9073
45.9498
45.9813
46.0841
46.0096
46.2027
46.1214
46.1951
-0.365385
-0.274945
-0.509522
-0.273335
-0.342754
-0.287591
-0.243748
-0.199634
-0.155033
-0.110381
-0.066322
-0.0222017
45.8106
45.813
45.8241
45.8437
45.8711
45.9055
45.9481
45.98
46.0821
46.0098
46.1997
46.1202
46.1953
-0.367136
-0.277791
-0.511976
-0.27553
-0.344732
-0.289306
-0.245188
-0.200804
-0.155936
-0.111021
-0.0667042
-0.0223288
45.8066
45.81
45.8214
45.841
45.8684
45.9028
45.9454
45.9779
46.0789
46.0094
46.1957
46.119
46.1951
-0.370051
-0.280888
-0.515663
-0.278652
-0.347661
-0.291842
-0.247329
-0.202546
-0.157281
-0.111975
-0.0672731
-0.0225175
45.8023
45.8063
45.8179
45.8375
45.8649
45.8992
45.9418
45.9749
46.0746
46.0087
46.1908
46.1174
46.1943
-0.374703
-0.285988
-0.520511
-0.282933
-0.35153
-0.295187
-0.250149
-0.204838
-0.15905
-0.113229
-0.0680213
-0.0227655
45.7978
45.8021
45.8138
45.8333
45.8606
45.8948
45.9372
45.9713
46.0692
46.0079
46.1847
46.1156
46.1931
-0.380657
-0.291884
-0.52643
-0.288149
-0.356262
-0.299286
-0.253609
-0.207651
-0.16122
-0.114768
-0.068939
-0.0230697
45.7931
45.7974
45.8091
45.8285
45.8555
45.8895
45.9319
45.9668
46.0628
46.0062
46.1784
46.1135
46.1917
-0.387862
-0.299084
-0.533361
-0.294309
-0.36181
-0.304094
-0.257664
-0.210946
-0.163763
-0.11657
-0.0700141
-0.0234258
45.788
45.7923
45.8038
45.823
45.8497
45.8836
45.9258
45.9617
46.0555
46.0029
46.1726
46.1113
46.1902
-0.396157
-0.307197
-0.541193
-0.301301
-0.368095
-0.309544
-0.262259
-0.21468
-0.166645
-0.118613
-0.0712321
-0.0238293
45.7826
45.7868
45.7982
45.817
45.8434
45.877
45.919
45.9559
46.0474
45.9992
46.1666
46.109
46.1887
-0.405401
-0.316205
-0.549833
-0.309033
-0.375032
-0.31556
-0.267331
-0.218802
-0.169824
-0.120866
-0.072576
-0.0242744
45.7771
45.7811
45.7922
45.8107
45.8366
45.8698
45.9117
45.9495
46.0387
45.9953
46.1605
46.1068
46.1875
-0.415455
-0.325957
-0.559155
-0.317393
-0.382522
-0.322058
-0.272808
-0.223252
-0.173257
-0.123299
-0.0740267
-0.024755
45.7714
45.7753
45.786
45.804
45.8294
45.8622
45.9039
45.9427
46.0295
45.9912
46.1545
46.105
46.1869
-0.426166
-0.336309
-0.569026
-0.326258
-0.390459
-0.328943
-0.278611
-0.227966
-0.176893
-0.125876
-0.0755633
-0.0252639
45.7656
45.7693
45.7796
45.7971
45.822
45.8543
45.8957
45.9355
46.02
45.9871
46.1488
46.1039
46.1871
-0.437373
-0.347101
-0.5793
-0.335495
-0.398724
-0.336112
-0.284653
-0.232874
-0.180679
-0.128559
-0.0771627
-0.0257936
45.7599
45.7633
45.7732
45.7901
45.8144
45.8462
45.8873
45.9281
46.0103
45.9832
46.1437
46.1038
46.1886
-0.448902
-0.358168
-0.589821
-0.344961
-0.407192
-0.343456
-0.290843
-0.237902
-0.184556
-0.131306
-0.0788008
-0.0263362
45.7542
45.7574
45.7668
45.7831
45.8068
45.8381
45.8789
45.9207
46.0009
45.9797
46.1396
46.105
46.1915
-0.460574
-0.369333
-0.600423
-0.354508
-0.41573
-0.350861
-0.297083
-0.24297
-0.188465
-0.134076
-0.0804518
-0.0268831
45.7488
45.7517
45.7606
45.7763
45.7992
45.83
45.8705
45.9133
45.9918
45.9767
46.1366
46.1079
46.1964
-0.4722
-0.38042
-0.610936
-0.363984
-0.424201
-0.358208
-0.303275
-0.247999
-0.192342
-0.136823
-0.0820896
-0.0274256
45.7437
45.7463
45.7547
45.7697
45.7919
45.8221
45.8623
45.9061
45.9832
45.9745
46.1351
46.1126
46.2032
-0.483596
-0.391248
-0.621189
-0.373235
-0.432468
-0.365376
-0.309316
-0.252905
-0.196125
-0.139503
-0.0836874
-0.0279547
45.739
45.7413
45.7491
45.7634
45.785
45.8146
45.8545
45.8993
45.9755
45.973
46.1351
46.1192
46.2122
-0.494571
-0.401643
-0.631009
-0.382107
-0.440391
-0.372248
-0.315107
-0.257608
-0.199751
-0.142071
-0.0852185
-0.0284619
45.7347
45.7367
45.7439
45.7576
45.7785
45.8075
45.8473
45.8929
45.9686
45.9723
46.1365
46.1274
46.2232
-0.50495
-0.411423
-0.640228
-0.390451
-0.447835
-0.378705
-0.320548
-0.262026
-0.203158
-0.144485
-0.0866571
-0.0289383
45.7311
45.7327
45.7394
45.7523
45.7725
45.8011
45.8406
45.8872
45.9627
45.9723
46.1392
46.1365
46.2356
-0.514559
-0.420455
-0.648688
-0.398127
-0.454672
-0.384638
-0.325547
-0.266085
-0.206287
-0.146701
-0.0879781
-0.0293757
45.7281
45.7293
45.7354
45.7477
45.7673
45.7954
45.8347
45.8821
45.9577
45.9728
46.1429
46.146
46.2489
-0.523234
-0.428543
-0.656229
-0.404994
-0.460777
-0.389939
-0.330014
-0.269712
-0.209083
-0.148681
-0.0891586
-0.0297667
45.726
45.7266
45.732
45.7438
45.7628
45.7905
45.8297
45.8778
45.9538
45.9738
46.1472
46.1557
46.2621
-0.530837
-0.43564
-0.662736
-0.410956
-0.466051
-0.394519
-0.333871
-0.272843
-0.211496
-0.150391
-0.0901775
-0.030104
45.7247
45.7246
45.7294
45.7406
45.7592
45.7865
45.8256
45.8743
45.9507
45.9749
46.1514
46.1648
46.2745
-0.53725
-0.441482
-0.668064
-0.415868
-0.470383
-0.398287
-0.337046
-0.275421
-0.213483
-0.151798
-0.0910162
-0.0303816
45.7247
45.7234
45.7275
45.7383
45.7564
45.7835
45.8224
45.8717
45.9485
45.976
46.1553
46.1724
46.2851
-0.542374
-0.446236
-0.672144
-0.419701
-0.473716
-0.401185
-0.339484
-0.2774
-0.215009
-0.152878
-0.0916596
-0.0305943
45.7245
45.7227
45.7263
45.7367
45.7546
45.7814
45.8204
45.87
45.9471
45.9768
46.1584
46.1781
46.2931
-0.546133
-0.449338
-0.674874
-0.42229
-0.475973
-0.40314
-0.341137
-0.278742
-0.216043
-0.15361
-0.0920958
-0.0307383
45.7302
45.7233
45.7258
45.736
45.7538
45.7805
45.8194
45.8692
45.9466
45.9771
46.1617
46.1812
46.2976
-0.548483
-0.45174
-0.676176
-0.423739
-0.477133
-0.404127
-0.341981
-0.279426
-0.216569
-0.153983
-0.0923169
-0.0308105
45.8137
45.8116
45.8217
45.841
45.8683
45.9024
45.9447
45.9762
46.0783
46.0037
46.2008
46.1174
46.1904
-0.371201
-0.28136
-0.512943
-0.277025
-0.343784
-0.288734
-0.244015
-0.199313
-0.154392
-0.109663
-0.0657407
-0.0219479
45.8073
45.8097
45.8207
45.8401
45.8674
45.9016
45.9439
45.9756
46.0773
46.0048
46.1948
46.1161
46.1906
-0.371868
-0.281101
-0.514313
-0.27796
-0.344799
-0.289629
-0.244756
-0.199916
-0.154858
-0.109993
-0.0659376
-0.0220141
45.8041
45.8075
45.8188
45.8383
45.8656
45.8997
45.9421
45.9742
46.075
46.005
46.1913
46.1146
46.1908
-0.373737
-0.284143
-0.516896
-0.280266
-0.346865
-0.291414
-0.246253
-0.20113
-0.155793
-0.110655
-0.0663325
-0.0221452
45.8
45.8044
45.8161
45.8356
45.8628
45.8969
45.9392
45.9718
46.0714
46.0045
46.1865
46.113
46.1903
-0.376824
-0.287423
-0.520768
-0.28354
-0.349923
-0.294058
-0.24848
-0.202937
-0.157186
-0.111641
-0.0669205
-0.0223401
45.7958
45.8006
45.8125
45.8321
45.8591
45.8931
45.9353
45.9686
46.0667
46.0036
46.1805
46.111
46.1891
-0.381721
-0.2928
-0.525858
-0.288032
-0.353965
-0.297545
-0.251413
-0.205317
-0.159019
-0.11294
-0.0676942
-0.0225963
45.7913
45.7964
45.8083
45.8277
45.8546
45.8884
45.9305
45.9645
46.0606
46.0021
46.1735
46.1084
46.1873
-0.387987
-0.299019
-0.532074
-0.293503
-0.35891
-0.301822
-0.255013
-0.208238
-0.16127
-0.114533
-0.0686439
-0.0229107
45.7864
45.7916
45.8035
45.8227
45.8494
45.8829
45.9247
45.9595
46.0535
45.9989
46.1667
46.1054
46.1849
-0.395563
-0.306604
-0.539357
-0.299967
-0.364713
-0.306839
-0.259236
-0.211663
-0.163909
-0.116402
-0.0697571
-0.0232792
45.7813
45.7864
45.7982
45.8171
45.8434
45.8766
45.9181
45.9536
46.0453
45.9944
46.1596
46.1019
46.182
-0.40429
-0.315161
-0.547593
-0.307307
-0.37129
-0.312531
-0.264024
-0.215546
-0.166901
-0.11852
-0.071019
-0.0236969
45.7759
45.7809
45.7924
45.811
45.8368
45.8696
45.9108
45.947
46.0361
45.9893
46.1517
46.0979
46.1789
-0.414016
-0.324662
-0.556684
-0.31543
-0.378555
-0.318818
-0.269313
-0.219836
-0.170204
-0.120859
-0.0724125
-0.0241581
45.7703
45.7751
45.7863
45.8044
45.8297
45.862
45.9028
45.9397
46.026
45.9837
46.1432
46.0936
46.1755
-0.424601
-0.334955
-0.566502
-0.324217
-0.386406
-0.325614
-0.275029
-0.224471
-0.173774
-0.123386
-0.073918
-0.0246564
45.7645
45.7691
45.7799
45.7975
45.8222
45.8539
45.8942
45.9318
46.0153
45.9776
46.1343
46.0892
46.1721
-0.43588
-0.345886
-0.576906
-0.333542
-0.394732
-0.33282
-0.28109
-0.229385
-0.177559
-0.126064
-0.0755138
-0.0251845
45.7587
45.7631
45.7734
45.7904
45.8144
45.8455
45.8851
45.9233
46.004
45.9711
46.1252
46.085
46.169
-0.44769
-0.357291
-0.587743
-0.343265
-0.40341
-0.340331
-0.287406
-0.234506
-0.181502
-0.128855
-0.0771763
-0.0257348
45.7528
45.757
45.7668
45.7831
45.8064
45.8367
45.8758
45.9145
45.9924
45.9644
46.1163
46.0813
46.1665
-0.459843
-0.36899
-0.598848
-0.353235
-0.412308
-0.348031
-0.293882
-0.239756
-0.185545
-0.131716
-0.0788803
-0.0262987
45.7471
45.751
45.7603
45.7759
45.7983
45.8279
45.8663
45.9055
45.9808
45.9578
46.1079
46.0784
46.1649
-0.472152
-0.380801
-0.610047
-0.363299
-0.421288
-0.355802
-0.300417
-0.245053
-0.189623
-0.134602
-0.0805995
-0.0268677
45.7416
45.7452
45.7539
45.7688
45.7903
45.8191
45.8568
45.8964
45.9694
45.9515
46.1004
46.077
46.1647
-0.48442
-0.392535
-0.621161
-0.373293
-0.430204
-0.363517
-0.306906
-0.250313
-0.193672
-0.137467
-0.0823062
-0.0274326
45.7364
45.7397
45.7478
45.7619
45.7826
45.8105
45.8476
45.8875
45.9585
45.9456
46.094
46.077
46.1661
-0.496449
-0.404
-0.632006
-0.383056
-0.438912
-0.371052
-0.313243
-0.25545
-0.197626
-0.140265
-0.0839725
-0.0279841
45.7316
45.7345
45.7421
45.7554
45.7752
45.8023
45.8386
45.8788
45.9483
45.9405
46.089
46.0783
46.1695
-0.508035
-0.415009
-0.6424
-0.392425
-0.447264
-0.378279
-0.319321
-0.260376
-0.201418
-0.142948
-0.0855705
-0.0285129
45.7273
45.7299
45.7368
45.7493
45.7683
45.7946
45.8302
45.8707
45.939
45.9361
46.0856
46.0807
46.1747
-0.518998
-0.425372
-0.652162
-0.40124
-0.455116
-0.385075
-0.325036
-0.265009
-0.204984
-0.14547
-0.0870729
-0.0290101
45.7236
45.7258
45.7321
45.7438
45.762
45.7875
45.8225
45.8633
45.9307
45.9326
46.0835
46.0846
46.1813
-0.529144
-0.434942
-0.661126
-0.409353
-0.462332
-0.391322
-0.33029
-0.269266
-0.208261
-0.147788
-0.0884536
-0.029467
45.7206
45.7223
45.728
45.739
45.7564
45.7811
45.8157
45.8566
45.9236
45.9298
46.0827
46.0891
46.189
-0.538306
-0.443513
-0.669119
-0.416612
-0.46878
-0.396908
-0.334987
-0.273074
-0.211191
-0.149861
-0.089688
-0.0298755
45.7184
45.7195
45.7245
45.7349
45.7516
45.7757
45.8098
45.8509
45.9176
45.9278
46.0828
46.0941
46.197
-0.546336
-0.451028
-0.676019
-0.422916
-0.474352
-0.401735
-0.339045
-0.276362
-0.213722
-0.151651
-0.090754
-0.0302282
45.7171
45.7175
45.7218
45.7316
45.7477
45.7713
45.8049
45.8462
45.9129
45.9264
46.0834
46.0988
46.2047
-0.553106
-0.457217
-0.681671
-0.42811
-0.478931
-0.405707
-0.342387
-0.27907
-0.215806
-0.153125
-0.0916319
-0.0305186
45.717
45.7163
45.7199
45.7291
45.7447
45.7679
45.8012
45.8426
45.9093
45.9255
46.0843
46.1027
46.2112
-0.558511
-0.462237
-0.686003
-0.432161
-0.482455
-0.408764
-0.344954
-0.28115
-0.217406
-0.154257
-0.0923057
-0.0307413
45.7168
45.7155
45.7186
45.7275
45.7428
45.7656
45.7987
45.8402
45.9069
45.9249
46.085
46.1058
46.216
-0.56247
-0.465524
-0.688902
-0.434899
-0.484841
-0.410827
-0.346694
-0.28256
-0.218492
-0.155025
-0.0927627
-0.0308922
45.7225
45.7161
45.7181
45.7268
45.7419
45.7646
45.7976
45.8392
45.9058
45.9249
46.0862
46.1076
46.2185
-0.564926
-0.468018
-0.690289
-0.43642
-0.486068
-0.411868
-0.347583
-0.283279
-0.219044
-0.155415
-0.0929946
-0.0309679
45.8062
45.8046
45.8148
45.8341
45.8611
45.8949
45.9369
45.9687
46.0694
45.997
46.1912
46.1102
46.1839
-0.380091
-0.289673
-0.519097
-0.283088
-0.346354
-0.29124
-0.245173
-0.199527
-0.154027
-0.109049
-0.0651674
-0.021676
45.7998
45.8028
45.8139
45.8332
45.8602
45.894
45.9361
45.968
46.0682
45.9981
46.1848
46.1088
46.1841
-0.380856
-0.289402
-0.520546
-0.284091
-0.347424
-0.292183
-0.245952
-0.200159
-0.154514
-0.109393
-0.0653722
-0.0217445
45.7967
45.8005
45.8119
45.8313
45.8583
45.8921
45.934
45.9664
46.0656
45.9983
46.1806
46.107
46.1841
-0.382894
-0.292786
-0.523309
-0.286545
-0.349608
-0.294064
-0.247524
-0.20143
-0.155491
-0.110084
-0.0657837
-0.0218809
45.7925
45.7973
45.8091
45.8285
45.8554
45.8891
45.9309
45.9637
46.0616
45.9976
46.1748
46.105
46.1832
-0.386214
-0.2963
-0.527432
-0.290028
-0.35284
-0.296851
-0.249865
-0.203325
-0.156949
-0.111114
-0.0663969
-0.0220839
45.7882
45.7935
45.8055
45.8248
45.8515
45.8851
45.9267
45.9601
46.0561
45.9963
46.1677
46.1023
46.1813
-0.391446
-0.302042
-0.532849
-0.294803
-0.357114
-0.300529
-0.252949
-0.205821
-0.158868
-0.112471
-0.0672046
-0.0223511
45.7837
45.7892
45.8012
45.8204
45.8468
45.8801
45.9214
45.9554
46.0493
45.9933
46.1601
46.0988
46.1785
-0.39814
-0.308694
-0.539466
-0.30062
-0.362347
-0.305042
-0.256737
-0.208887
-0.161225
-0.114138
-0.0681966
-0.0226791
45.7788
45.7843
45.7963
45.8152
45.8413
45.8742
45.9152
45.9496
46.0411
45.9884
46.1521
46.0944
46.1747
-0.406237
-0.316801
-0.547224
-0.307494
-0.368491
-0.310341
-0.261184
-0.212485
-0.163992
-0.116093
-0.0693604
-0.023064
45.7736
45.7791
45.7908
45.8094
45.835
45.8674
45.908
45.9429
46.0317
45.9825
46.1429
46.089
46.17
-0.415563
-0.32596
-0.556007
-0.315306
-0.375462
-0.316357
-0.26623
-0.216567
-0.16713
-0.118312
-0.0706809
-0.0235006
45.7681
45.7735
45.7849
45.803
45.8281
45.8599
45.8999
45.9352
46.021
45.9756
46.1324
46.0825
46.1643
-0.425962
-0.336133
-0.565711
-0.323956
-0.383169
-0.323009
-0.27181
-0.221081
-0.1706
-0.120764
-0.0721404
-0.0239832
45.7624
45.7676
45.7786
45.7962
45.8206
45.8517
45.8909
45.9266
46.0092
45.9676
46.1206
46.0751
46.1576
-0.437281
-0.347163
-0.576201
-0.333323
-0.391508
-0.330206
-0.277847
-0.225965
-0.174353
-0.123417
-0.0737189
-0.024505
45.7565
45.7615
45.7721
45.789
45.8126
45.8429
45.8813
45.9172
45.9964
45.9587
46.1077
46.0668
46.15
-0.449356
-0.358885
-0.587329
-0.343271
-0.40036
-0.337847
-0.284255
-0.231148
-0.178337
-0.126232
-0.0753939
-0.0250589
45.7506
45.7553
45.7654
45.7816
45.8043
45.8337
45.8712
45.907
45.9827
45.9488
46.0939
46.0578
46.1416
-0.462002
-0.371124
-0.598933
-0.353653
-0.409597
-0.345818
-0.290941
-0.236555
-0.182492
-0.129168
-0.0771409
-0.0256365
45.7447
45.7491
45.7586
45.774
45.7958
45.8242
45.8606
45.8963
45.9685
45.9382
46.0795
46.0485
46.1326
-0.475027
-0.383689
-0.610834
-0.364311
-0.419078
-0.354
-0.297803
-0.242105
-0.186756
-0.13218
-0.0789336
-0.0262292
45.7389
45.7429
45.7519
45.7664
45.7872
45.8145
45.8497
45.8852
45.9539
45.9272
46.0648
46.0394
46.1236
-0.488226
-0.396382
-0.622849
-0.375076
-0.428657
-0.362266
-0.304736
-0.247711
-0.191063
-0.135223
-0.0807441
-0.0268278
45.7333
45.737
45.7453
45.759
45.7787
45.8048
45.8388
45.8738
45.9392
45.916
46.0504
46.0308
46.115
-0.50139
-0.409001
-0.634782
-0.385778
-0.438179
-0.370482
-0.311627
-0.253283
-0.195344
-0.138248
-0.0825435
-0.0274228
45.728
45.7314
45.739
45.7518
45.7704
45.7953
45.828
45.8624
45.9248
45.905
46.0368
46.0223
46.1073
-0.514301
-0.421337
-0.646437
-0.39624
-0.447487
-0.378513
-0.318364
-0.258731
-0.199529
-0.141203
-0.0843021
-0.0280043
45.7231
45.7261
45.7331
45.7449
45.7625
45.7861
45.8175
45.8514
45.911
45.8945
46.0245
46.0149
46.101
-0.526748
-0.433189
-0.657616
-0.406286
-0.456424
-0.386224
-0.324832
-0.263961
-0.203546
-0.144041
-0.0859904
-0.0285625
45.7187
45.7213
45.7276
45.7386
45.755
45.7775
45.8077
45.8408
45.8982
45.8848
46.0136
46.0085
46.0962
-0.53852
-0.44435
-0.668123
-0.415745
-0.464833
-0.393481
-0.33092
-0.268883
-0.207328
-0.146712
-0.0875791
-0.0290878
45.7149
45.7171
45.7227
45.7328
45.7482
45.7695
45.7986
45.8311
45.8865
45.8761
46.0045
46.0035
46.0928
-0.549422
-0.454655
-0.677777
-0.424454
-0.472566
-0.400156
-0.336521
-0.273411
-0.210805
-0.149168
-0.0890403
-0.0295709
45.7118
45.7136
45.7184
45.7277
45.7421
45.7624
45.7904
45.8223
45.8762
45.8684
45.9968
45.9994
46.0906
-0.559267
-0.463889
-0.68639
-0.432251
-0.479481
-0.40613
-0.341532
-0.277463
-0.213917
-0.151365
-0.0903478
-0.0300031
45.7096
45.7107
45.7149
45.7233
45.7369
45.7563
45.7833
45.8147
45.8674
45.8619
45.9905
45.996
46.0892
-0.567894
-0.471976
-0.693829
-0.439021
-0.48546
-0.411295
-0.345863
-0.280964
-0.216606
-0.153264
-0.0914774
-0.0303766
45.7082
45.7086
45.712
45.7198
45.7327
45.7513
45.7775
45.8084
45.8602
45.8566
45.9855
45.9932
46.0881
-0.575163
-0.478641
-0.699925
-0.4446
-0.490376
-0.415547
-0.349432
-0.28385
-0.218823
-0.15483
-0.0924085
-0.0306844
45.7081
45.7073
45.71
45.7172
45.7295
45.7475
45.7731
45.8036
45.8547
45.8527
45.9816
45.9906
46.0868
-0.580962
-0.484024
-0.7046
-0.448949
-0.494161
-0.418819
-0.352174
-0.286067
-0.220525
-0.156032
-0.0931235
-0.0309205
45.7079
45.7066
45.7086
45.7155
45.7273
45.7449
45.7701
45.8003
45.8509
45.8501
45.9786
45.9885
46.0852
-0.5852
-0.487564
-0.707731
-0.45189
-0.496724
-0.421029
-0.354034
-0.287571
-0.22168
-0.156847
-0.0936086
-0.0310806
45.7135
45.7071
45.7081
45.7147
45.7263
45.7437
45.7687
45.7988
45.849
45.8491
45.9776
45.9866
46.0838
-0.587808
-0.490184
-0.709239
-0.453512
-0.498042
-0.422144
-0.354983
-0.288338
-0.222268
-0.157263
-0.0938553
-0.0311612
45.7977
45.7963
45.8065
45.8255
45.8522
45.8856
45.9273
45.9593
46.0582
45.9887
46.1795
46.1012
46.1755
-0.39144
-0.300121
-0.526631
-0.290647
-0.349471
-0.29417
-0.246432
-0.199626
-0.153433
-0.108179
-0.0643866
-0.0213133
45.7913
45.7945
45.8055
45.8246
45.8512
45.8847
45.9263
45.9586
46.0568
45.9898
46.1724
46.0997
46.1756
-0.39231
-0.29975
-0.528183
-0.291735
-0.350612
-0.295172
-0.247257
-0.200293
-0.153945
-0.10854
-0.064601
-0.0213848
45.7881
45.7922
45.8036
45.8227
45.8492
45.8826
45.9241
45.9567
46.0539
45.9899
46.1675
46.0976
46.1753
-0.394583
-0.30385
-0.531193
-0.294379
-0.352944
-0.297173
-0.248924
-0.201637
-0.154976
-0.109267
-0.065033
-0.0215277
45.7839
45.7889
45.8007
45.8198
45.8462
45.8794
45.9206
45.9536
46.0493
45.989
46.1606
46.095
46.1739
-0.398211
-0.307562
-0.53563
-0.298126
-0.356394
-0.300139
-0.251406
-0.20364
-0.156512
-0.110351
-0.0656776
-0.0217407
45.7796
45.7851
45.797
45.816
45.8422
45.8751
45.916
45.9494
46.0431
45.9863
46.1529
46.0914
46.1711
-0.403873
-0.313741
-0.541459
-0.303257
-0.360959
-0.304056
-0.254679
-0.20628
-0.158538
-0.111781
-0.0665271
-0.0220213
45.775
45.7806
45.7926
45.8113
45.8372
45.8697
45.9103
45.944
46.0353
45.9814
46.1446
46.0866
46.167