/*--------------------------------*- C++ -*----------------------------------*\
| =========                 |                                                 |
| \\      /  F ield         | OpenFOAM: The Open Source CFD Toolbox           |
|  \\    /   O peration     | Version:  2306                                  |
|   \\  /    A nd           | Website:  www.openfoam.com                      |
|    \\/     M anipulation  |                                                 |
\*---------------------------------------------------------------------------*/
FoamFile
{
    version     2.0;
    format      ascii;
    arch        "LSB;label=32;scalar=64";
    class       volScalarField;
    location    "1";
    object      p;
}
// * * * * * * * * * * * * * * * * * * * * * * * * * * * * * * * * * * * * * //

dimensions      [0 2 -2 0 0 0 0];

internalField   nonuniform List<scalar> 
288632
(
38.164
38.1564
38.1656
38.1857
38.2146
38.2511
38.2945
38.3389
38.4131
38.2361
38.6861
38.3418
38.4998
0.235278
0.383464
-0.116953
0.157808
0.0881748
0.0765053
0.0677141
0.0572235
0.0455472
0.0330152
0.0194958
0.00630112
38.1581
38.1547
38.1646
38.1848
38.2137
38.2503
38.2937
38.3383
38.4122
38.2359
38.6852
38.3405
38.4998
0.235307
0.384452
-0.117846
0.15742
0.0876224
0.0759819
0.0672692
0.056858
0.0452626
0.0328122
0.0193732
0.00625909
38.1543
38.1522
38.1626
38.1829
38.2118
38.2485
38.292
38.3368
38.4103
38.2366
38.6837
38.3395
38.4998
0.234491
0.382189
-0.119522
0.15595
0.0863846
0.0749262
0.0663754
0.0561264
0.0446943
0.0324073
0.0191304
0.00617797
38.1502
38.1489
38.1597
38.1801
38.209
38.2457
38.2893
38.3345
38.4073
38.2375
38.6811
38.3389
38.4998
0.233023
0.381138
-0.121623
0.154116
0.0846233
0.0733646
0.0650475
0.0550389
0.0438498
0.0318057
0.0187703
0.00605811
38.1458
38.145
38.156
38.1765
38.2053
38.242
38.2857
38.3313
38.4034
38.2386
38.6778
38.338
38.4996
0.230711
0.377879
-0.124555
0.151518
0.0822846
0.0713122
0.0633022
0.0536099
0.0427404
0.0310156
0.0182976
0.005901
38.1411
38.1405
38.1516
38.172
38.2008
38.2374
38.2812
38.3273
38.3985
38.24
38.6738
38.3371
38.4992
0.22715
0.374497
-0.128076
0.148312
0.079417
0.0687964
0.0611627
0.0518584
0.0413808
0.0300475
0.0177187
0.00570869
38.136
38.1354
38.1466
38.1669
38.1955
38.232
38.2759
38.3225
38.3928
38.2421
38.669
38.3361
38.4989
0.222865
0.370298
-0.132191
0.144531
0.0760551
0.06585
0.0586575
0.049808
0.0397896
0.0289147
0.0170413
0.00548377
38.1305
38.13
38.141
38.1611
38.1895
38.2259
38.2698
38.3169
38.3864
38.2441
38.6646
38.3355
38.4989
0.217918
0.365472
-0.136842
0.140227
0.0722437
0.0625123
0.0558205
0.0474867
0.0379887
0.0276328
0.016275
0.00522936
38.1247
38.1241
38.135
38.1548
38.1829
38.2191
38.2631
38.3108
38.3793
38.2459
38.661
38.3355
38.4994
0.212387
0.360091
-0.141971
0.135461
0.0680347
0.058829
0.0526911
0.0449269
0.0360032
0.0262199
0.0154304
0.00494905
38.1187
38.118
38.1286
38.1481
38.1758
38.2118
38.2558
38.304
38.372
38.2486
38.6574
38.3362
38.5007
0.206356
0.354242
-0.147507
0.130303
0.0634868
0.054852
0.0493134
0.0421651
0.0338617
0.0246962
0.0145197
0.00464686
38.1126
38.1117
38.122
38.141
38.1684
38.204
38.248
38.2969
38.3646
38.2522
38.6542
38.3381
38.5032
0.199916
0.348013
-0.153375
0.124829
0.0586653
0.0506385
0.0457365
0.0392414
0.0315953
0.0230839
0.0135563
0.00432722
38.1064
38.1052
38.1152
38.1338
38.1607
38.196
38.24
38.2895
38.3573
38.2567
38.6517
38.3414
38.5072
0.19316
0.341501
-0.159491
0.119122
0.0536414
0.0462506
0.0420134
0.0361994
0.0292378
0.0214073
0.0125545
0.00399487
38.1001
38.0988
38.1083
38.1265
38.1529
38.1879
38.2319
38.2821
38.3505
38.2624
38.6503
38.3465
38.5131
0.186188
0.334809
-0.165761
0.11327
0.0484911
0.041755
0.0382007
0.0330854
0.0268253
0.019692
0.0115297
0.00365488
38.094
38.0925
38.1016
38.1192
38.1451
38.1798
38.2238
38.2748
38.3443
38.2692
38.6503
38.3536
38.5214
0.179114
0.328041
-0.172091
0.107365
0.0432944
0.0372213
0.0343575
0.0299476
0.0243951
0.0179646
0.0104979
0.00331256
38.0882
38.0864
38.095
38.1121
38.1374
38.1718
38.2159
38.2678
38.339
38.2773
38.6518
38.363
38.5322
0.172029
0.321302
-0.178378
0.101499
0.038134
0.0327218
0.030545
0.0268362
0.0219861
0.0162525
0.00947535
0.00297337
38.0826
38.0806
38.0887
38.1052
38.1301
38.1641
38.2084
38.2614
38.3345
38.2864
38.6551
38.3749
38.5457
0.165075
0.314702
-0.184519
0.0957676
0.033094
0.0283297
0.0268252
0.0238015
0.0196371
0.0145836
0.00847873
0.0026428
38.0775
38.0752
38.0828
38.0988
38.1231
38.1569
38.2014
38.2556
38.3311
38.2966
38.6602
38.3891
38.5619
0.158337
0.308348
-0.190409
0.0902643
0.0282584
0.0241181
0.0232599
0.0208939
0.0173872
0.0129854
0.00752446
0.00232634
38.0729
38.0703
38.0774
38.0928
38.1167
38.1502
38.1951
38.2507
38.3286
38.3074
38.6668
38.4053
38.5806
0.151964
0.302342
-0.195948
0.0850799
0.0237095
0.0201587
0.0199095
0.0181624
0.0152741
0.0114847
0.00662857
0.0020293
38.0689
38.0659
38.0726
38.0874
38.1108
38.1442
38.1895
38.2466
38.3271
38.3187
38.6746
38.423
38.601
0.146037
0.296784
-0.201036
0.0803014
0.0195263
0.01652
0.0168317
0.015654
0.0133341
0.0101072
0.00580636
0.00175673
38.0657
38.0623
38.0684
38.0827
38.1057
38.139
38.1847
38.2433
38.3264
38.3299
38.6831
38.4414
38.6224
0.140655
0.291825
-0.205581
0.0760102
0.0157827
0.0132661
0.0140803
0.0134124
0.0116009
0.00887673
0.00507207
0.00151338
38.0632
38.0594
38.065
38.0788
38.1014
38.1345
38.1807
38.2407
38.3264
38.3406
38.6917
38.4598
38.6439
0.135954
0.286641
-0.209525
0.0722784
0.0125461
0.0104554
0.0117045
0.0114773
0.010105
0.00781507
0.00443862
0.00130352
38.0618
38.0573
38.0623
38.0756
38.0979
38.131
38.1776
38.2389
38.3268
38.3502
38.7
38.4769
38.6641
0.132774
0.284647
-0.2126
0.0692525
0.00988113
0.00813888
0.00974722
0.00988344
0.00887329
0.00694108
0.00391731
0.00113094
38.0615
38.056
38.0603
38.0732
38.0952
38.1283
38.1753
38.2377
38.3274
38.3581
38.7072
38.4913
38.6816
0.130048
0.279476
-0.215294
0.0665336
0.00777972
0.00635783
0.00824408
0.00865987
0.00792801
0.00627052
0.00351757
0.00099878
38.062
38.0554
38.0591
38.0717
38.0935
38.1266
38.1738
38.237
38.3279
38.3639
38.7123
38.502
38.695
0.126536
0.278654
-0.216816
0.065288
0.00647166
0.00515922
0.00722437
0.00782916
0.00728646
0.00581556
0.00324672
0.000909522
38.0668
38.0558
38.0586
38.071
38.0927
38.1258
38.1732
38.2368
38.3284
38.3673
38.7159
38.5073
38.7041
0.124594
0.275963
-0.217456
0.0639746
0.00566054
0.00452808
0.00669895
0.00740429
0.00695931
0.00558378
0.00310978
0.000865343
38.1574
38.1539
38.1638
38.184
38.2128
38.2493
38.2926
38.3371
38.4109
38.2343
38.6836
38.3392
38.4987
0.235079
0.38388
-0.117113
0.156712
0.0878995
0.0763538
0.0676528
0.0572415
0.0456211
0.033115
0.0195855
0.00634269
38.1515
38.1522
38.1628
38.1831
38.2119
38.2485
38.2919
38.3364
38.41
38.2352
38.6795
38.3379
38.4986
0.23515
0.384815
-0.118017
0.156305
0.087331
0.075819
0.0672005
0.0568705
0.0453324
0.0329093
0.0194613
0.00630021
38.1478
38.1497
38.1608
38.1812
38.21
38.2466
38.2901
38.3349
38.408
38.2362
38.6772
38.3369
38.4988
0.234321
0.382524
-0.119718
0.154817
0.08608
0.0747477
0.0662935
0.0561285
0.0447563
0.032499
0.0192154
0.00621811
38.1436
38.1464
38.1579
38.1783
38.2072
38.2438
38.2873
38.3324
38.4049
38.2371
38.6741
38.336
38.4987
0.232832
0.381411
-0.121864
0.152941
0.0842866
0.0731616
0.0649458
0.0550256
0.0439004
0.0318895
0.0188508
0.00609678
38.1392
38.1424
38.1542
38.1747
38.2034
38.24
38.2836
38.3291
38.4008
38.2382
38.6703
38.335
38.4985
0.230465
0.378115
-0.12484
0.150299
0.0819094
0.0710769
0.0631745
0.0535763
0.0427758
0.031089
0.018372
0.00593771
38.1345
38.1379
38.1497
38.1702
38.1988
38.2353
38.279
38.3249
38.3957
38.2397
38.6657
38.3338
38.498
0.226864
0.374656
-0.128423
0.147036
0.0789942
0.0685216
0.0610029
0.0517996
0.0413974
0.030108
0.0177856
0.00574297
38.1294
38.1328
38.1446
38.165
38.1935
38.2298
38.2735
38.3199
38.3897
38.2414
38.6608
38.3326
38.4976
0.222518
0.370376
-0.132611
0.143188
0.0755759
0.0655281
0.0584595
0.0497193
0.039784
0.0289599
0.0170993
0.00551518
38.1239
38.1273
38.139
38.1591
38.1874
38.2235
38.2673
38.3141
38.3829
38.2427
38.6564
38.3317
38.4973
0.217498
0.365455
-0.137345
0.138807
0.0716999
0.0621365
0.0555788
0.0473638
0.0379575
0.0276604
0.0163227
0.00525749
38.1181
38.1215
38.133
38.1528
38.1807
38.2166
38.2603
38.3076
38.3755
38.2444
38.6519
38.3312
38.4975
0.211885
0.35997
-0.142567
0.133955
0.0674184
0.0583929
0.0524004
0.0447656
0.0359435
0.0262278
0.0154667
0.00497352
38.1121
38.1153
38.1265
38.146
38.1735
38.2091
38.2527
38.3005
38.3677
38.2466
38.6476
38.3314
38.4985
0.205762
0.354005
-0.148206
0.128702
0.0627912
0.0543498
0.0489691
0.0419618
0.0337707
0.0246825
0.0145435
0.00466731
38.1059
38.1089
38.1198
38.1388
38.1659
38.2012
38.2447
38.293
38.3598
38.2497
38.6435
38.3326
38.5005
0.199222
0.347651
-0.154186
0.123127
0.0578844
0.0500651
0.0453345
0.038993
0.0314706
0.0230471
0.0135666
0.00434331
38.0996
38.1025
38.113
38.1315
38.1581
38.193
38.2364
38.2852
38.352
38.2536
38.6401
38.3352
38.5039
0.192359
0.341008
-0.160419
0.117314
0.0527702
0.045602
0.0415503
0.0359032
0.0290775
0.021346
0.0125506
0.00400635
38.0934
38.096
38.1061
38.1241
38.1501
38.1846
38.2279
38.2773
38.3445
38.2586
38.6376
38.3393
38.5092
0.18528
0.334179
-0.166811
0.111351
0.047526
0.041028
0.037674
0.0327395
0.0266279
0.0196052
0.0115109
0.00366155
38.0873
38.0896
38.0993
38.1167
38.1422
38.1763
38.2195
38.2695
38.3376
38.2646
38.6364
38.3455
38.5167
0.178085
0.327269
-0.173266
0.105333
0.0422331
0.036414
0.0337657
0.0295508
0.0241598
0.0178517
0.0104639
0.0033143
38.0814
38.0835
38.0926
38.1095
38.1344
38.168
38.2113
38.262
38.3315
38.2717
38.6367
38.3539
38.5268
0.170892
0.320391
-0.179679
0.0993533
0.0369757
0.0318336
0.0298877
0.0263881
0.0217126
0.0161134
0.00942606
0.00297014
38.0758
38.0776
38.0863
38.1025
38.1269
38.1601
38.2034
38.255
38.3264
38.28
38.6387
38.3646
38.5395
0.163817
0.313652
-0.185945
0.0935097
0.0318398
0.0273614
0.026103
0.0233026
0.0193258
0.0144184
0.00841427
0.00263468
38.0706
38.0722
38.0803
38.096
38.1197
38.1527
38.1961
38.2487
38.3222
38.2891
38.6424
38.3776
38.5549
0.156989
0.307164
-0.191958
0.0878976
0.0269109
0.0230719
0.0224745
0.0203456
0.0170391
0.0127949
0.00744527
0.00231345
38.066
38.0672
38.0749
38.0899
38.1131
38.1458
38.1894
38.2433
38.319
38.299
38.6476
38.3927
38.5728
0.150504
0.301032
-0.197613
0.08261
0.0222732
0.0190383
0.019064
0.0175671
0.014891
0.0112701
0.00653535
0.00201187
38.062
38.0629
38.07
38.0845
38.1072
38.1396
38.1835
38.2387
38.3168
38.3093
38.6541
38.4094
38.5925
0.144484
0.295358
-0.20281
0.0777358
0.0180073
0.0153306
0.0159302
0.015015
0.0129184
0.00987015
0.00570009
0.00173509
38.0587
38.0592
38.0658
38.0797
38.1019
38.1341
38.1783
38.235
38.3155
38.3197
38.6615
38.4269
38.6134
0.139006
0.290291
-0.207453
0.0733586
0.0141889
0.0120142
0.0131284
0.0127339
0.0111558
0.00861951
0.00495401
0.00148792
38.0563
38.0563
38.0623
38.0757
38.0975
38.1295
38.1741
38.2321
38.3149
38.3296
38.6692
38.4445
38.6343
0.134234
0.285005
-0.211481
0.0695538
0.0108872
0.00914914
0.0107085
0.0107643
0.00963425
0.00754021
0.00431029
0.00127474
38.0548
38.0542
38.0595
38.0724
38.0939
38.1258
38.1707
38.2299
38.3148
38.3385
38.6767
38.4607
38.654
0.13097
0.282973
-0.21463
0.0664588
0.00816729
0.00678764
0.00871458
0.00914187
0.00838124
0.00665161
0.00378046
0.00109937
38.0545
38.0529
38.0575
38.07
38.0912
38.123
38.1682
38.2284
38.3151
38.3459
38.6833
38.4743
38.6714
0.128304
0.277726
-0.217374
0.0636968
0.00602791
0.00497221
0.00718318
0.0078962
0.00741955
0.00596975
0.00337412
0.000965051
38.055
38.0523
38.0563
38.0684
38.0894
38.1212
38.1666
38.2275
38.3154
38.3513
38.6881
38.4845
38.6848
0.124745
0.276732
-0.218939
0.0624216
0.00468694
0.0037476
0.00614409
0.0070505
0.00676685
0.00550708
0.00309879
0.000874336
38.0598
38.0526
38.0558
38.0677
38.0886
38.1204
38.166
38.2273
38.3157
38.3543
38.6919
38.4906
38.6934
0.122697
0.274336
-0.219586
0.061091
0.00386599
0.00310995
0.00560996
0.00661823
0.00643411
0.00527156
0.00295966
0.000829431
38.1521
38.1499
38.1602
38.1804
38.2091
38.2455
38.2887
38.3331
38.4064
38.2317
38.679
38.3353
38.4959
0.234577
0.382272
-0.117097
0.154652
0.0875648
0.0762818
0.067731
0.0574472
0.045905
0.0334152
0.0198304
0.00645131
38.1462
38.1481
38.1592
38.1795
38.2082
38.2446
38.2879
38.3324
38.4054
38.2329
38.6741
38.3339
38.4959
0.234675
0.383208
-0.118011
0.154218
0.0869761
0.0757298
0.0672654
0.0570659
0.0456087
0.0332043
0.0197032
0.00640796
38.1424
38.1456
38.1571
38.1775
38.2063
38.2427
38.286
38.3307
38.4032
38.2339
38.6711
38.3327
38.4961
0.233807
0.38087
-0.119761
0.15269
0.0856893
0.0746275
0.0663325
0.0563035
0.0450174
0.0327835
0.0194513
0.00632392
38.1383
38.1423
38.1542
38.1747
38.2034
38.2397
38.2831
38.3281
38.3999
38.2348
38.6673
38.3315
38.496
0.232273
0.379665
-0.121986
0.150736
0.0838363
0.072994
0.0649459
0.05517
0.0441387
0.0321584
0.0190776
0.00619967
38.1338
38.1383
38.1504
38.1709
38.1995
38.2358
38.2792
38.3245
38.3954
38.2358
38.6628
38.3301
38.4955
0.229801
0.376286
-0.125055
0.148003
0.0813823
0.0708448
0.0631228
0.0536802
0.0429838
0.0313371
0.0185868
0.00603673
38.129
38.1337
38.1459
38.1663
38.1948
38.2309
38.2743
38.32
38.3899
38.2371
38.6573
38.3285
38.4947
0.226073
0.372671
-0.128763
0.144626
0.0783719
0.0682105
0.060887
0.0518532
0.0415681
0.0303304
0.0179854
0.00583719
38.1239
38.1286
38.1408
38.161
38.1892
38.2252
38.2685
38.3145
38.3833
38.2381
38.6518
38.3267
38.4937
0.221574
0.368227
-0.133096
0.140643
0.0748408
0.0651232
0.0582676
0.0497134
0.0399103
0.0291518
0.0172814
0.00560371
38.1183
38.123
38.1351
38.1551
38.183
38.2187
38.2618
38.3082
38.3758
38.2386
38.6463
38.3249
38.4927
0.216384
0.363117
-0.137999
0.136107
0.0708352
0.0616238
0.0552994
0.0472895
0.0380329
0.0278173
0.0164845
0.00533948
38.1125
38.1171
38.1289
38.1485
38.1761
38.2114
38.2544
38.3011
38.3675
38.2395
38.6404
38.3235
38.4919
0.210576
0.35742
-0.143408
0.131081
0.0664086
0.0577595
0.0520231
0.0446148
0.0359618
0.0263454
0.0156057
0.00504816
38.1064
38.1109
38.1224
38.1416
38.1687
38.2036
38.2464
38.2933
38.3588
38.2409
38.6342
38.3224
38.4916
0.204236
0.351223
-0.149254
0.125639
0.0616222
0.0535839
0.0484845
0.041727
0.0337264
0.0247571
0.0146575
0.00473388
38.1002
38.1044
38.1156
38.1343
38.1608
38.1953
38.2378
38.2849
38.3498
38.2429
38.628
38.3222
38.492
0.197461
0.344621
-0.155455
0.119861
0.0565439
0.0491565
0.0447342
0.0386678
0.0313589
0.0230753
0.0136536
0.00440119
38.0938
38.0979
38.1086
38.1268
38.1527
38.1867
38.2288
38.2762
38.3407
38.2455
38.6221
38.323
38.4936
0.190347
0.337715
-0.161923
0.113833
0.0512482
0.0445422
0.0408276
0.0354822
0.0288945
0.0213252
0.0126091
0.00405501
38.0875
38.0913
38.1016
38.1192
38.1445
38.1779
38.2197
38.2672
38.3319
38.249
38.6168
38.3252
38.4967
0.183004
0.330612
-0.168563
0.107647
0.0458149
0.0398107
0.0368237
0.0322187
0.0263706
0.0195333
0.0115398
0.00370062
38.0814
38.0849
38.0947
38.1116
38.1362
38.169
38.2106
38.2584
38.3236
38.2533
38.6126
38.3291
38.5018
0.175547
0.323423
-0.175271
0.101401
0.0403283
0.0350352
0.0327846
0.0289278
0.0238264
0.0177274
0.0104622
0.00334353
38.0754
38.0786
38.0879
38.1042
38.1281
38.1603
38.2016
38.2498
38.3159
38.2586
38.6097
38.3351
38.5092
0.168094
0.316263
-0.18194
0.0951924
0.0348756
0.0302919
0.0287746
0.025662
0.0213024
0.0159363
0.0093937
0.00298946
38.0698
38.0727
38.0814
38.097
38.1203
38.1519
38.193
38.2418
38.3091
38.2648
38.6084
38.3434
38.5191
0.160761
0.309247
-0.18846
0.0891225
0.029546
0.0256583
0.0248592
0.0224743
0.0188396
0.0141891
0.00835147
0.00264416
38.0645
38.0672
38.0754
38.0903
38.1128
38.144
38.1849
38.2344
38.3034
38.2719
38.6087
38.3539
38.5317
0.153676
0.302489
-0.19472
0.0832908
0.0244289
0.0212117
0.0211036
0.019418
0.0164789
0.0125147
0.00735285
0.00231336
38.0598
38.0622
38.0698
38.0841
38.1059
38.1366
38.1775
38.228
38.2987
38.2798
38.6108
38.3666
38.5469
0.146948
0.296101
-0.200612
0.0777943
0.0196117
0.0170284
0.0175719
0.0165449
0.0142603
0.0109415
0.00641473
0.00200264
38.0558
38.0578
38.0648
38.0784
38.0997
38.13
38.1709
38.2224
38.295
38.2882
38.6143
38.3811
38.564
0.140691
0.290187
-0.206029
0.0727263
0.0151786
0.0131812
0.0143253
0.0139046
0.0122222
0.00949651
0.00555323
0.00171735
38.0525
38.054
38.0605
38.0735
38.0942
38.1241
38.1652
38.2177
38.2924
38.2967
38.6189
38.3966
38.5825
0.135013
0.284899
-0.210871
0.0681746
0.0112092
0.00973873
0.0114213
0.0115438
0.0104003
0.00820514
0.00478343
0.00146249
38.05
38.0511
38.0569
38.0693
38.0895
38.1191
38.1604
38.214
38.2907
38.305
38.6243
38.4121
38.6014
0.130048
0.279396
-0.215072
0.06422
0.00777574
0.0067635
0.00891231
0.00950468
0.00882709
0.00709032
0.00411901
0.00124259
38.0485
38.0489
38.0541
38.066
38.0857
38.1151
38.1565
38.2112
38.2897
38.3125
38.6296
38.4266
38.6193
0.126734
0.277283
-0.218367
0.0609958
0.00494632
0.0043115
0.00684444
0.00782443
0.00753111
0.00617217
0.00357196
0.00106163
38.0481
38.0475
38.0521
38.0635
38.0829
38.1121
38.1537
38.2092
38.2891
38.3189
38.6344
38.4389
38.6351
0.123758
0.271876
-0.221224
0.0581316
0.0027221
0.00242313
0.00525545
0.00653406
0.0065362
0.00546746
0.00315228
0.000922971
38.0486
38.0469
38.0508
38.0618
38.081
38.1101
38.1518
38.2079
38.2889
38.3235
38.6379
38.4482
38.6472
0.120148
0.270744
-0.22286
0.0568048
0.00132494
0.00114887
0.00417711
0.00565789
0.0058608
0.00498918
0.00286782
0.000829286
38.0534
38.0472
38.0503
38.0611
38.0802
38.1093
38.151
38.2075
38.2889
38.3263
38.6408
38.4532
38.6551
0.118085
0.268308
-0.223561
0.0554267
0.000471744
0.000489666
0.00362335
0.00520995
0.00551637
0.00474561
0.00272398
0.000782833
38.1457
38.1443
38.1549
38.175
38.2036
38.2397
38.2827
38.3271
38.3994
38.2277
38.6717
38.33
38.4913
0.232935
0.38025
-0.116745
0.151672
0.0871715
0.0762777
0.0679418
0.0578374
0.0463984
0.0339168
0.0202316
0.00662723
38.1398
38.1425
38.1538
38.1741
38.2026
38.2388
38.2818
38.3263
38.3983
38.229
38.6663
38.3284
38.4913
0.232999
0.381147
-0.117688
0.151198
0.0865529
0.0757006
0.0674564
0.0574408
0.0460908
0.0336981
0.0201001
0.00658257
38.136
38.14
38.1518
38.1721
38.2006
38.2367
38.2798
38.3244
38.3959
38.23
38.6627
38.3269
38.4915
0.232083
0.378724
-0.119516
0.149602
0.0852079
0.0745506
0.0664844
0.0566477
0.0454767
0.0332617
0.0198392
0.00649564
38.1318
38.1366
38.1488
38.1691
38.1976
38.2336
38.2766
38.3215
38.3922
38.2308
38.6581
38.3253
38.491
0.230457
0.377374
-0.121858
0.147542
0.0832692
0.0728457
0.0650393
0.0554684
0.0445638
0.0326132
0.0194519
0.00636704
38.1273
38.1325
38.1449
38.1653
38.1936
38.2295
38.2724
38.3175
38.3873
38.2316
38.6524
38.3233
38.49
0.2278
0.373856
-0.125073
0.144669
0.0806985
0.0705996
0.0631381
0.0539176
0.0433637
0.0317608
0.0189431
0.0061983
38.1225
38.1279
38.1404
38.1606
38.1887
38.2243
38.2672
38.3124
38.381
38.2322
38.6462
38.321
38.4884
0.223875
0.370013
-0.128967
0.14112
0.0775446
0.0678462
0.0608058
0.0520153
0.0418917
0.0307155
0.0183193
0.00599157
38.1173
38.1227
38.1351
38.1551
38.1829
38.2183
38.2609
38.3063
38.3736
38.2319
38.6397
38.3182
38.4864
0.21915
0.36532
-0.13352
0.136931
0.073843
0.0646174
0.0580718
0.0497859
0.0401673
0.029491
0.0175888
0.00574956
38.1117
38.1171
38.1293
38.149
38.1764
38.2114
38.2537
38.2992
38.365
38.2316
38.6324
38.3152
38.4841
0.213686
0.359922
-0.138676
0.13216
0.0696414
0.0609553
0.054972
0.047259
0.0382132
0.0281039
0.0167613
0.0054755
38.1058
38.111
38.123
38.1423
38.1692
38.2037
38.2456
38.2911
38.3555
38.2314
38.6242
38.3121
38.4815
0.20757
0.353901
-0.14437
0.126872
0.064995
0.0569085
0.051548
0.044469
0.0360563
0.026573
0.0158482
0.00517316
38.0996
38.1047
38.1163
38.1351
38.1614
38.1953
38.2368
38.2822
38.3453
38.2315
38.6152
38.309
38.479
0.200884
0.34735
-0.150529
0.121142
0.0599672
0.0525325
0.0478472
0.0414546
0.0337266
0.0249199
0.0148624
0.00484676
38.0933
38.0982
38.1093
38.1276
38.1532
38.1865
38.2274
38.2726
38.3347
38.2317
38.6056
38.3063
38.4767
0.193743
0.340366
-0.157069
0.115055
0.0546289
0.047889
0.0439221
0.0382588
0.0312575
0.0231684
0.013818
0.00450099
38.0869
38.0915
38.1022
38.1198
38.1447
38.1772
38.2175
38.2625
38.3237
38.2324
38.5958
38.304
38.4748
0.186234
0.333056
-0.163897
0.108701
0.0490576
0.0430457
0.0398302
0.0349286
0.0286855
0.0213443
0.0127305
0.00414095
38.0805
38.0848
38.095
38.1119
38.136
38.1677
38.2074
38.2521
38.3128
38.2335
38.5861
38.3026
38.4739
0.178483
0.325534
-0.170912
0.102176
0.0433371
0.0380753
0.0356331
0.0315142
0.0260494
0.0194753
0.0116164
0.0037721
38.0742
38.0782
38.0879
38.104
38.1273
38.1582
38.1971
38.2416
38.3022
38.2351
38.5768
38.3025
38.4742
0.170607
0.317917
-0.178006
0.0955826
0.0375558
0.0330548
0.0313958
0.0280686
0.0233901
0.0175904
0.0104929
0.00340019
38.0681
38.0719
38.0809
38.0963
38.1187
38.1488
38.1871
38.2314
38.2921
38.2374
38.5686
38.3041
38.4764
0.16273
0.310325
-0.185066
0.0890253
0.0318059
0.0280641
0.0271858
0.0246466
0.0207499
0.0157195
0.00937795
0.00303114
38.0624
38.0658
38.0743
38.0889
38.1104
38.1397
38.1773
38.2217
38.2828
38.2404
38.5618
38.3077
38.4808
0.154977
0.302883
-0.191974
0.0826103
0.0261816
0.0231849
0.023072
0.0213041
0.018172
0.0138932
0.00828972
0.00267098
38.0571
38.0602
38.0681
38.0819
38.1026
38.131
38.1682
38.2128
38.2745
38.2441
38.5566
38.3134
38.4878
0.147486
0.295711
-0.198613
0.0764434
0.0207774
0.0184994
0.0191232
0.0180971
0.0156993
0.0121418
0.00724633
0.00232569
38.0523
38.0551
38.0623
38.0754
38.0952
38.1229
38.1597
38.2047
38.2674
38.2487
38.5534
38.3216
38.4973
0.140362
0.288929
-0.204867
0.070628
0.0156864
0.014088
0.0154072
0.0150803
0.013374
0.0104952
0.00626552
0.00200116
38.0482
38.0506
38.0572
38.0695
38.0886
38.1156
38.1521
38.1976
38.2616
38.2538
38.5519
38.3317
38.5093
0.133742
0.282648
-0.210622
0.0652634
0.0109983
0.0100283
0.011989
0.0123062
0.0112364
0.00898202
0.00536428
0.00170301
38.0448
38.0467
38.0527
38.0643
38.0827
38.1091
38.1454
38.1915
38.2569
38.2593
38.552
38.3429
38.5228
0.127732
0.277026
-0.215771
0.0604438
0.00679788
0.00639349
0.00892958
0.00982424
0.00932451
0.00762886
0.00455852
0.0014365
38.0423
38.0437
38.049
38.06
38.0777
38.1036
38.1397
38.1865
38.2533
38.2648
38.5531
38.3548
38.5372
0.122468
0.271167
-0.220242
0.0562551
0.003163
0.00325027
0.00628483
0.00767934
0.00767273
0.0064601
0.0038627
0.00120642
38.0407
38.0415
38.0461
38.0564
38.0736
38.0992
38.1352
38.1826
38.2507
38.2701
38.5547
38.3659
38.551
0.119031
0.268972
-0.223746
0.0528503
0.000169318
0.00065998
0.0041042
0.00591112
0.00631144
0.00549709
0.00328951
0.00101698
38.0403
38.0401
38.044
38.0538
38.0706
38.0958
38.1318
38.1797
38.2489
38.2746
38.5562
38.375
38.5633
0.11566
0.263278
-0.226785
0.0498091
-0.00219437
-0.00133962
0.00242748
0.00455266
0.00526595
0.00475764
0.00284957
0.000871748
38.0408
38.0394
38.0427
38.0521
38.0685
38.0936
38.1295
38.1779
38.2479
38.2781
38.5571
38.382
38.5729
0.111925
0.262013
-0.22852
0.0484198
-0.00366889
-0.00268821
0.00128949
0.00363003
0.004556
0.00425564
0.00255122
0.000773538
38.0455
38.0397
38.0421
38.0513
38.0676
38.0926
38.1285
38.1772
38.2475
38.2805
38.5578
38.3861
38.579
0.109872
0.25954
-0.229289
0.0469605
-0.00457363
-0.0033824
0.000705356
0.00315812
0.00419374
0.00399969
0.00240015
0.000724719
38.1383
38.1373
38.148
38.168
38.1962
38.232
38.2747
38.319
38.3902
38.2223
38.6622
38.3229
38.4847
0.230614
0.37748
-0.116087
0.147782
0.0867002
0.0763366
0.0682872
0.0584172
0.0471069
0.0346242
0.0207921
0.00687131
38.1323
38.1354
38.1469
38.167
38.1952
38.231
38.2737
38.3181
38.389
38.2235
38.6563
38.3211
38.4848
0.230625
0.378332
-0.117072
0.147255
0.0860411
0.0757269
0.0677756
0.0580002
0.0467842
0.0343953
0.0206547
0.00682487
38.1285
38.1329
38.1448
38.165
38.1931
38.2289
38.2715
38.316
38.3863
38.2245
38.652
38.3192
38.4847
0.229623
0.375791
-0.119003
0.145569
0.0846203
0.0745123
0.066751
0.0571662
0.0461397
0.0339382
0.0203818
0.00673412
38.1243
38.1295
38.1417
38.1619
38.19
38.2255
38.2681
38.3127
38.3821
38.2251
38.6464
38.3171
38.4838
0.227869
0.374245
-0.121501
0.143362
0.082563
0.0727103
0.0652273
0.0559256
0.0451812
0.0332584
0.0199765
0.00659973
38.1198
38.1253
38.1378
38.1579
38.1858
38.2211
38.2635
38.3081
38.3764
38.2253
38.6398
38.3144
38.482
0.224965
0.370536
-0.124916
0.1403
0.0798358
0.0703347
0.0632218
0.0542934
0.0439206
0.0323645
0.0194436
0.0064233
38.1149
38.1206
38.1331
38.153
38.1806
38.2156
38.2577
38.3024
38.3693
38.2246
38.6326
38.311
38.4794
0.220767
0.366387
-0.12906
0.136517
0.0764884
0.0674212
0.0607601
0.05229
0.0423736
0.0312677
0.01879
0.00620701
38.1096
38.1153
38.1277
38.1474
38.1745
38.2091
38.2508
38.2954
38.3606
38.2234
38.6243
38.307
38.4758
0.215709
0.361352
-0.133911
0.132052
0.0725567
0.064002
0.0578723
0.0499407
0.04056
0.029982
0.018024
0.00595361
38.1039
38.1096
38.1218
38.141
38.1677
38.2017
38.2429
38.2872
38.3507
38.2219
38.6144
38.3021
38.4715
0.209864
0.355562
-0.13941
0.126963
0.0680904
0.0601208
0.0545955
0.0472759
0.0385034
0.0285245
0.0171557
0.00566644
38.0979
38.1034
38.1153
38.134
38.1601
38.1934
38.2339
38.2779
38.3396
38.2202
38.603
38.2967
38.4663
0.203319
0.349101
-0.14549
0.121319
0.0631469
0.0558281
0.050973
0.044331
0.0362313
0.0269146
0.0161969
0.00534936
38.0916
38.097
38.1084
38.1266
38.1519
38.1844
38.2241
38.2676
38.3275
38.2183
38.5901
38.2907
38.4604
0.196164
0.342066
-0.152074
0.1152
0.0577927
0.0511817
0.0470538
0.0411464
0.0337752
0.0251747
0.0151607
0.00500675
38.0852
38.0903
38.1012
38.1187
38.1432
38.1748
38.2136
38.2563
38.3145
38.2162
38.5757
38.2841
38.4538
0.188501
0.334562
-0.159074
0.108694
0.052102
0.0462463
0.0428931
0.037767
0.0311697
0.0233296
0.0140619
0.00464347
38.0787
38.0835
38.0939
38.1106
38.1342
38.1648
38.2025
38.2444
38.301
38.214
38.5603
38.2773
38.4465
0.180449
0.326703
-0.166391
0.101896
0.0461571
0.0410931
0.0385512
0.0342419
0.0284529
0.0214062
0.0129168
0.00426486
38.0722
38.0767
38.0865
38.1024
38.1249
38.1544
38.191
38.2319
38.2871
38.2116
38.5441
38.2703
38.439
0.172129
0.318608
-0.173918
0.0949106
0.0400466
0.0357993
0.0340931
0.0306241
0.0256657
0.0194335
0.0117425
0.00387661
38.0658
38.0699
38.0791
38.0942
38.1156
38.144
38.1794
38.2194
38.2733
38.2093
38.5277
38.2637
38.4316
0.16367
0.310405
-0.181538
0.0878451
0.0338649
0.0304464
0.0295877
0.0269696
0.0228513
0.0174422
0.0105572
0.00348476
38.0596
38.0634
38.0719
38.0861
38.1065
38.1336
38.1679
38.207
38.2598
38.2071
38.5117
38.2581
38.4252
0.155197
0.302223
-0.189131
0.0808124
0.0277106
0.0251199
0.0251068
0.0233366
0.0200545
0.0154638
0.00937979
0.00309556
38.0538
38.0572
38.0651
38.0783
38.0976
38.1235
38.1566
38.195
38.2471
38.2053
38.4968
38.2541
38.4203
0.146861
0.294197
-0.19657
0.0739267
0.021685
0.0199074
0.0207239
0.0197847
0.017321
0.0135308
0.00822956
0.00271537
38.0484
38.0514
38.0586
38.0709
38.0891
38.1139
38.146
38.1838
38.2353
38.2041
38.4836
38.2521
38.4177
0.13879
0.286457
-0.203727
0.0673023
0.0158897
0.0148968
0.0165131
0.0163736
0.0146969
0.0116755
0.00712577
0.00235057
38.0435
38.0462
38.0527
38.064
38.0812
38.1049
38.136
38.1735
38.2249
38.2036
38.4724
38.2525
38.4177
0.131122
0.279134
-0.210477
0.0610508
0.010425
0.0101749
0.0125468
0.0131619
0.012227
0.00992983
0.00608732
0.00200741
38.0393
38.0415
38.0473
38.0578
38.074
38.0967
38.127
38.1642
38.2158
38.2038
38.4633
38.2549
38.4202
0.123986
0.272351
-0.216697
0.0552802
0.00538825
0.00582559
0.0088951
0.0102063
0.00995475
0.00832422
0.00513237
0.0016919
38.0358
38.0376
38.0427
38.0524
38.0676
38.0894
38.119
38.1562
38.2082
38.2047
38.4562
38.2581
38.4247
0.117506
0.266274
-0.222268
0.0500935
0.000871885
0.00192824
0.0056242
0.00755975
0.00792081
0.00688739
0.00427796
0.00140965
38.0332
38.0345
38.0388
38.0477
38.0622
38.0832
38.1122
38.1494
38.202
38.206
38.4506
38.2617
38.4304
0.111842
0.259872
-0.227119
0.0455809
-0.00303924
-0.0014445
0.00279454
0.00527102
0.00616243
0.00564554
0.00353961
0.00116579
38.0315
38.0321
38.0358
38.044
38.0578
38.0782
38.1067
38.144
38.1972
38.2076
38.4461
38.2655
38.4363
0.108264
0.257648
-0.230894
0.0419346
-0.00625884
-0.00422438
0.000460158
0.00338312
0.00471241
0.00462167
0.002931
0.00096489
38.0311
38.0307
38.0336
38.0412
38.0544
38.0743
38.1026
38.14
38.1936
38.2093
38.4424
38.2689
38.4415
0.104104
0.251497
-0.234193
0.0386455
-0.00880808
-0.0063734
-0.00133581
0.00193198
0.00359817
0.00383509
0.00246362
0.000810755
38.0315
38.03
38.0322
38.0394
38.0522
38.0718
38.0998
38.1373
38.1913
38.2109
38.4391
38.2715
38.4455
0.100256
0.250117
-0.236051
0.0371864
-0.0103883
-0.00782138
-0.0025548
0.000946078
0.00284128
0.00330086
0.00214642
0.000706427
38.0363
38.0303
38.0316
38.0386
38.0512
38.0706
38.0986
38.1362
38.1903
38.2125
38.4372
38.2726
38.4478
0.098363
0.24755
-0.236919
0.0356017
-0.0113658
-0.00856749
-0.00318094
0.000441462
0.00245471
0.00302807
0.00198552
0.000654384
38.1297
38.1289
38.1396
38.1593
38.1871
38.2225
38.2648
38.309
38.3788
38.2155
38.6503
38.3138
38.4763
0.227727
0.373992
-0.115081
0.143012
0.0861283
0.0764535
0.068771
0.0591938
0.0480382
0.0355439
0.0215156
0.00718492
38.1238
38.1271
38.1385
38.1583
38.1861
38.2214
38.2637
38.3079
38.3774
38.2168
38.6441
38.3119
38.4763
0.227582
0.374784
-0.116124
0.142418
0.085418
0.0758032
0.0682265
0.0587512
0.0476966
0.0353023
0.021371
0.00713625
38.1199
38.1244
38.1363
38.1562
38.1839
38.2191
38.2612
38.3055
38.3743
38.2177
38.6389
38.3096
38.4758
0.226475
0.372092
-0.118186
0.14062
0.0839012
0.0745074
0.0671361
0.057866
0.0470141
0.0348192
0.0210832
0.00704075
38.1157
38.121
38.1332
38.153
38.1806
38.2155
38.2575
38.3017
38.3695
38.2178
38.6325
38.3069
38.4743
0.224566
0.370293
-0.120881
0.138224
0.0816941
0.0725831
0.0655138
0.0565486
0.0459987
0.0341004
0.0206554
0.00689918
38.1111
38.1168
38.1291
38.1488
38.1761
38.2108
38.2524
38.2965
38.363
38.2169
38.625
38.3032
38.4716
0.221326
0.36634
-0.12455
0.134924
0.0787694
0.0700447
0.0633771
0.0548144
0.0446624
0.0331546
0.0200926
0.00671316
38.1061
38.112
38.1243
38.1438
38.1707
38.2048
38.246
38.2898
38.3547
38.215
38.6162
38.2986
38.4675
0.216778
0.361805
-0.129012
0.130845
0.0751769
0.0669291
0.0607525
0.0526843
0.0430213
0.0319933
0.0194017
0.00648492
38.1007
38.1066
38.1188
38.1379
38.1643
38.1978
38.2384
38.2818
38.3447
38.2126