/*--------------------------------*- C++ -*----------------------------------*\
| =========                 |                                                 |
| \\      /  F ield         | OpenFOAM: The Open Source CFD Toolbox           |
|  \\    /   O peration     | Version:  2306                                  |
|   \\  /    A nd           | Website:  www.openfoam.com                      |
|    \\/     M anipulation  |                                                 |
\*---------------------------------------------------------------------------*/
FoamFile
{
    version     2.0;
    format      ascii;
    arch        "LSB;label=32;scalar=64";
    class       volScalarField;
    location    "1.4";
    object      p;
}
// * * * * * * * * * * * * * * * * * * * * * * * * * * * * * * * * * * * * * //

dimensions      [0 2 -2 0 0 0 0];

internalField   nonuniform List<scalar> 
288632
(
40.9897
40.9816
40.9902
41.0095
41.0372
41.072
41.1136
41.1513
41.249
41.1145
41.4262
41.2344
41.3408
0.0203109
0.132562
-0.230247
0.033183
-0.0613086
-0.0536773
-0.043102
-0.0339342
-0.0255194
-0.0177269
-0.0108355
-0.0037659
40.9835
40.9798
40.9892
41.0087
41.0364
41.0712
41.1129
41.1508
41.2481
41.1141
41.4253
41.2332
41.3407
0.0201055
0.133166
-0.231427
0.0327027
-0.0619818
-0.0543109
-0.0436393
-0.0343746
-0.0258616
-0.0179703
-0.0109823
-0.00381647
40.9801
40.9774
40.9873
41.0069
41.0346
41.0695
41.1113
41.1496
41.2459
41.114
41.4236
41.232
41.3406
0.0188364
0.130551
-0.233423
0.0308366
-0.0635352
-0.0556085
-0.0447269
-0.0352612
-0.0265481
-0.0184584
-0.0112743
-0.0039137
40.976
40.9742
40.9845
41.0042
41.032
41.0669
41.1089
41.1476
41.2427
41.1137
41.4207
41.2311
41.3404
0.0166708
0.129058
-0.235987
0.0286824
-0.0656791
-0.057513
-0.0463429
-0.03658
-0.0275692
-0.0191841
-0.011708
-0.00405781
40.9717
40.9704
40.981
41.0007
41.0285
41.0635
41.1056
41.145
41.2384
41.1132
41.4171
41.2299
41.3398
0.0135879
0.124785
-0.239703
0.0254457
-0.0685589
-0.0600226
-0.0484682
-0.0383138
-0.0289113
-0.0201378
-0.0122777
-0.0042469
40.967
40.9661
40.9767
40.9965
41.0242
41.0592
41.1015
41.1417
41.2332
41.1127
41.4127
41.2286
41.3391
0.0092107
0.120789
-0.244052
0.0215456
-0.072082
-0.0630998
-0.0510743
-0.0404396
-0.0305565
-0.0213067
-0.0129758
-0.00447847
40.9621
40.9612
40.9719
40.9915
41.0191
41.0542
41.0967
41.1377
41.2271
41.1122
41.4077
41.2271
41.3383
0.00388389
0.115488
-0.24917
0.0169429
-0.0762095
-0.0667045
-0.0541263
-0.0429286
-0.0324825
-0.0226748
-0.0137927
-0.0047494
40.9568
40.9559
40.9665
40.986
41.0134
41.0484
41.0911
41.1332
41.2202
41.112
41.4022
41.2258
41.3378
-0.00225932
0.109506
-0.254959
0.0117073
-0.0808856
-0.0707876
-0.0575827
-0.0457467
-0.0346626
-0.0242233
-0.0147173
-0.00505595
40.9512
40.9503
40.9607
40.9799
41.0071
41.0421
41.085
41.1281
41.2128
41.1117
41.3969
41.2249
41.3377
-0.00911782
0.102856
-0.261344
0.00591349
-0.086046
-0.0752922
-0.0613951
-0.0488542
-0.0370663
-0.0259303
-0.0157363
-0.0053938
40.9454
40.9443
40.9545
40.9735
41.0004
41.0352
41.0783
41.1225
41.2049
41.111
41.3927
41.2248
41.3385
-0.0165852
0.0956413
-0.268234
-0.000353883
-0.0916179
-0.0801533
-0.0655092
-0.0522065
-0.039659
-0.0277713
-0.0168352
-0.0057581
40.9394
40.9382
40.9481
40.9667
40.9933
41.0279
41.0711
41.1164
41.1969
41.1103
41.3896
41.2257
41.3404
-0.0245824
0.0879668
-0.275534
-0.00700262
-0.0975213
-0.0852988
-0.0698654
-0.0557547
-0.0424031
-0.0297193
-0.0179979
-0.00614352
40.9334
40.932
40.9416
40.9597
40.9859
41.0203
41.0637
41.1102
41.1888
41.1106
41.3872
41.228
41.3438
-0.0329153
0.0799452
-0.283138
-0.0139352
-0.103671
-0.0906478
-0.0744004
-0.0594459
-0.0452581
-0.0317456
-0.0192071
-0.00654432
40.9274
40.9258
40.9349
40.9526
40.9783
41.0125
41.056
41.1037
41.1812
41.1119
41.3859
41.2321
41.3492
-0.0415735
0.0716995
-0.290929
-0.0210814
-0.109985
-0.0961067
-0.0790503
-0.0632252
-0.048182
-0.0338195
-0.0204444
-0.00695445
40.9215
40.9197
40.9284
40.9455
40.9708
41.0046
41.0483
41.0973
41.1741
41.1143
41.3862
41.2381
41.3569
-0.0503086
0.0633767
-0.298855
-0.0282709
-0.116407
-0.101838
-0.0837684
-0.067043
-0.0511328
-0.0359091
-0.0216904
-0.00736758
40.9158
40.9137
40.922
40.9386
40.9633
40.9969
41.0407
41.091
41.1677
41.1179
41.3882
41.2466
41.3672
-0.0590226
0.0551061
-0.306647
-0.0353984
-0.122721
-0.107297
-0.0884319
-0.0708918
-0.0540807
-0.037982
-0.0229253
-0.00777719
40.9104
40.9081
40.9159
40.9319
40.9561
40.9894
41.0334
41.085
41.1622
41.1227
41.3921
41.2574
41.3801
-0.0675642
0.0470248
-0.314248
-0.0423525
-0.128875
-0.112643
-0.0929635
-0.0745763
-0.0569381
-0.0400368
-0.0241279
-0.00817675
40.9055
40.9028
40.9101
40.9256
40.9492
40.9822
41.0264
41.0794
41.1577
41.1286
41.3979
41.2706
41.3958
-0.0758189
0.0392566
-0.321536
-0.0490232
-0.134773
-0.117773
-0.0973001
-0.0780993
-0.0596653
-0.0419713
-0.0252711
-0.00856026
40.901
40.8981
40.9049
40.9197
40.9429
40.9755
41.02
41.0744
41.1542
41.1355
41.4054
41.2859
41.4138
-0.0836188
0.0319371
-0.328379
-0.0552989
-0.140316
-0.122595
-0.101372
-0.0814095
-0.0622255
-0.0437905
-0.0264259
-0.0089248
40.8971
40.8939
40.9001
40.9144
40.9371
40.9695
41.0142
41.0699
41.1517
41.1431
41.4143
41.3027
41.4339
-0.0908637
0.0251279
-0.334661
-0.0610812
-0.145408
-0.127025
-0.105112
-0.0844502
-0.0645738
-0.0454563
-0.0274037
-0.00925437
40.894
40.8903
40.8961
40.9098
40.9319
40.9642
41.0091
41.0662
41.15
41.1509
41.4239
41.3203
41.4548
-0.0974204
0.0191013
-0.340266
-0.0662517
-0.149957
-0.130984
-0.108452
-0.0871664
-0.0666711
-0.0469424
-0.0282821
-0.00955019
40.8917
40.8875
40.8926
40.9059
40.9276
40.9596
41.0048
41.0631
41.1491
41.1585
41.4338
41.3377
41.4755
-0.103186
0.01361
-0.345106
-0.0707807
-0.153893
-0.134404
-0.111337
-0.0895103
-0.0684806
-0.0482239
-0.0290429
-0.00980583
40.8903
40.8854
40.89
40.9027
40.9241
40.9559
41.0014
41.0607
41.1486
41.1655
41.4431
41.3537
41.4946
-0.108055
0.00930626
-0.349042
-0.0744508
-0.157119
-0.137216
-0.11371
-0.0914401
-0.0699697
-0.0492786
-0.0296701
-0.0100133
40.8901
40.8842
40.888
40.9003
40.9214
40.9531
40.9988
41.059
41.1485
41.1713
41.4512
41.3672
41.5111
-0.111989
0.00544367
-0.352071
-0.0774341
-0.15962
-0.139383
-0.115535
-0.0929217
-0.0711125
-0.0500879
-0.0301513
-0.0101719
40.8903
40.8835
40.8868
40.8988
40.9197
40.9513
40.9971
41.0579
41.1486
41.1755
41.457
41.3773
41.5238
-0.114905
0.00320787
-0.354073
-0.0793386
-0.161294
-0.140841
-0.11677
-0.0939263
-0.0718873
-0.0506366
-0.0304776
-0.0102796
40.8955
40.884
40.8863
40.8981
40.9189
40.9505
40.9964
41.0575
41.1488
41.1781
41.4607
41.3827
41.5321
-0.116805
0.000990584
-0.354978
-0.0805364
-0.162171
-0.14159
-0.117403
-0.094439
-0.072282
-0.0509161
-0.0306426
-0.0103313
40.9829
40.979
40.9884
41.0079
41.0355
41.0703
41.1118
41.1496
41.2468
41.1126
41.4238
41.232
41.3396
0.0195688
0.132269
-0.231182
0.0319362
-0.0617138
-0.0540191
-0.0432562
-0.0339514
-0.0254495
-0.0176181
-0.010736
-0.00371987
40.9767
40.9772
40.9875
41.007
41.0347
41.0695
41.1111
41.1491
41.2458
41.1133
41.4194
41.2307
41.3395
0.0194077
0.132837
-0.232353
0.0314353
-0.0624053
-0.0546676
-0.0438026
-0.0343984
-0.0257965
-0.0178648
-0.0108846
-0.00377098
40.9732
40.9749
40.9855
41.0052
41.0329
41.0678
41.1095
41.1478
41.2436
41.1135
41.4168
41.2295
41.3396
0.0181135
0.130188
-0.234389
0.029549
-0.0639739
-0.0559814
-0.0449054
-0.0352969
-0.026492
-0.018359
-0.0111802
-0.00386933
40.9692
40.9717
40.9827
41.0025
41.0302
41.0651
41.107
41.1458
41.2403
41.1132
41.4134
41.2284
41.3393
0.015913
0.128628
-0.23701
0.0273388
-0.0661576
-0.057916
-0.0465445
-0.0366335
-0.0275263
-0.0190938
-0.0116192
-0.00401513
40.9648
40.9679
40.9792
40.9989
41.0266
41.0616
41.1036
41.1431
41.2358
41.1127
41.4093
41.227
41.3387
0.0127744
0.12431
-0.240773
0.0240604
-0.0690813
-0.0604635
-0.0487002
-0.038391
-0.0288859
-0.0200595
-0.0121958
-0.00420645
40.9602
40.9635
40.9749
40.9946
41.0223
41.0572
41.0994
41.1396
41.2303
41.1121
41.4043
41.2255
41.3379
0.00834048
0.120209
-0.245203
0.0200892
-0.0726608
-0.0635876
-0.0513439
-0.040546
-0.0305528
-0.0212432
-0.0129025
-0.00444081
40.9552
40.9586
40.97
40.9897
41.0172
41.0521
41.0944
41.1355
41.224
41.1117
41.3985
41.2238
41.337
0.00293442
0.11482
-0.250412
0.0154056
-0.0768553
-0.0672479
-0.0544406
-0.0430698
-0.0325045
-0.022629
-0.0137297
-0.00471506
40.9499
40.9533
40.9646
40.9841
41.0114
41.0462
41.0887
41.1307
41.2168
41.1112
41.3925
41.2222
41.3363
-0.00329943
0.108724
-0.256305
0.0100775
-0.0816084
-0.071395
-0.0579484
-0.0459278
-0.0347143
-0.0241978
-0.014666
-0.00502541
40.9443
40.9476
40.9587
40.9779
41.005
41.0397
41.0823
41.1252
41.209
41.1099
41.3874
41.2209
41.3359
-0.0102597
0.101946
-0.262806
0.00418029
-0.0868552
-0.0759714
-0.0618185
-0.0490801
-0.0371511
-0.0259275
-0.0156983
-0.00536752
40.9385
40.9416
40.9525
40.9714
40.9981
41.0327
41.0754
41.1193
41.2007
41.1084
41.3827
41.2203
41.3363
-0.0178406
0.0945913
-0.269824
-0.00220034
-0.0925219
-0.0809119
-0.0659961
-0.0524817
-0.0397803
-0.0277935
-0.0168118
-0.0057365
40.9325
40.9355
40.946
40.9645
40.9909
41.0252
41.068
41.1129
41.1921
41.1074
41.3786
41.2206
41.3378
-0.0259266
0.0867679
-0.27726
-0.00897107
-0.0985271
-0.0861449
-0.070421
-0.0560828
-0.0425637
-0.0297686
-0.0179902
-0.00612699
40.9265
40.9292
40.9394
40.9574
40.9833
41.0173
41.0602
41.1061
41.1835
41.1071
41.3752
41.2222
41.3407
-0.0343846
0.0785895
-0.285003
-0.0160331
-0.104782
-0.0915935
-0.0750294
-0.0598291
-0.0454603
-0.0318234
-0.019216
-0.00653318
40.9204
40.9229
40.9327
40.9503
40.9756
41.0093
41.0522
41.0992
41.1752
41.1076
41.373
41.2254
41.3454
-0.0432992
0.0701728
-0.292924
-0.0233015
-0.111194
-0.0971834
-0.0797565
-0.0636607
-0.0484275
-0.0339271
-0.0204707
-0.00694898
40.9145
40.9168
40.9261
40.9431
40.9679
41.0012
41.0441
41.0922
41.1674
41.1092
41.3721
41.2306
41.3524
-0.0521066
0.0616745
-0.301059
-0.030638
-0.117762
-0.102902
-0.0845425
-0.0675067
-0.0514234
-0.036048
-0.0217349
-0.00736797
40.9088
40.9108
40.9197
40.9361
40.9603
40.9932
41.0362
41.0853
41.1603
41.1118
41.373
41.238
41.3619
-0.0609417
0.0532411
-0.308987
-0.0378997
-0.12418
-0.108499
-0.0892855
-0.0714931
-0.0544157
-0.0381555
-0.0229887
-0.00778357
40.9034
40.9051
40.9135
40.9293
40.953
40.9855
41.0284
41.0787
41.1541
41.1156
41.3757
41.2478
41.3741
-0.069622
0.0449963
-0.316736
-0.0449883
-0.130447
-0.11395
-0.0938947
-0.0752053
-0.0573167
-0.0402333
-0.024211
-0.00818912
40.8984
40.8998
40.9077
40.9229
40.9459
40.9781
41.0211
41.0725
41.1488
41.1205
41.3803
41.2599
41.389
-0.0779919
0.0370663
-0.324171
-0.05179
-0.136456
-0.119175
-0.0983067
-0.0787811
-0.0600887
-0.0422007
-0.0253753
-0.00857826
40.8939
40.895
40.9024
40.9169
40.9394
40.9712
41.0143
41.0669
41.1446
41.1263
41.3865
41.2741
41.4063
-0.0859252
0.0295938
-0.331156
-0.0581896
-0.142105
-0.124086
-0.102451
-0.0821462
-0.0626899
-0.0440481
-0.026533
-0.00894709
40.89
40.8908
40.8976
40.9115
40.9335
40.9649
41.0081
41.0619
41.1414
41.1329
41.3943
41.2901
41.4256
-0.0932872
0.0226456
-0.337569
-0.0640864
-0.147296
-0.128599
-0.106257
-0.0852382
-0.0650762
-0.04574
-0.0275297
-0.00928177
40.8869
40.8872
40.8935
40.9068
40.9282
40.9594
41.0027
41.0577
41.139
41.1398
41.403
41.3068
41.446
-0.0999554
0.0164901
-0.343294
-0.0693614
-0.151934
-0.132632
-0.109657
-0.0880008
-0.0672081
-0.04725
-0.0284238
-0.00958203
40.8845
40.8844
40.89
40.9028
40.9238
40.9546
40.9982
41.0542
41.1375
41.1466
41.412
41.3233
41.4663
-0.105806
0.0108928
-0.348235
-0.0739786
-0.155947
-0.136116
-0.112593
-0.0903853
-0.0690477
-0.0485524
-0.0291974
-0.00984229
40.8832
40.8823
40.8873
40.8996
40.9202
40.9508
40.9945
41.0514
41.1365
41.1528
41.4206
41.3384
41.4852
-0.110758
0.00649615
-0.352259
-0.077725
-0.159238
-0.138981
-0.11501
-0.0923489
-0.0705619
-0.0496243
-0.0298348
-0.0100527
40.8829
40.881
40.8853
40.8972
40.9174
40.9479
40.9917
41.0494
41.1361
41.158
41.4281
41.351
41.5015
-0.114757
0.00257357
-0.355354
-0.080763
-0.161787
-0.141188
-0.116867
-0.0938565
-0.0717239
-0.0504468
-0.0303239
-0.0102137
40.8831
40.8804
40.8841
40.8956
40.9156
40.946
40.9899
41.0482
41.1359
41.1618
41.4337
41.3606
41.514
-0.1177
0.000282439
-0.357401
-0.0827084
-0.163496
-0.142674
-0.118125
-0.0948786
-0.0725117
-0.0510046
-0.0306554
-0.0103231
40.8883
40.8808
40.8836
40.8949
40.9148
40.9451
40.9891
41.0477
41.1359
41.1638
41.4384
41.3661
41.522
-0.119514
-0.00193033
-0.358325
-0.0839195
-0.164387
-0.143434
-0.118769
-0.0953996
-0.0729127
-0.0512882
-0.0308229
-0.0103759
40.9778
40.9751
40.9849
41.0044
41.0319
41.0666
41.1081
41.1459
41.2422
41.1096
41.4192
41.228
41.3369
0.0179569
0.129697
-0.2327
0.0295503
-0.0622904
-0.0544408
-0.0433428
-0.0337983
-0.0251591
-0.0172888
-0.0104634
-0.00359865
40.9716
40.9733
40.9839
41.0035
41.0311
41.0658
41.1074
41.1454
41.2411
41.1106
41.4139
41.2267
41.3369
0.0177511
0.130255
-0.233868
0.0290161
-0.0630059
-0.0551104
-0.0439047
-0.0342573
-0.0255149
-0.0175415
-0.0106153
-0.00365069
40.9681
40.9709
40.982
41.0016
41.0293
41.064
41.1056
41.144
41.2388
41.1108
41.4108
41.2253
41.337
0.0164044
0.127546
-0.235973
0.0270866
-0.0646145
-0.0564602
-0.0450378
-0.0351794
-0.0262279
-0.0180476
-0.0109178
-0.00375127
40.964
40.9677
40.9792
40.9989
41.0265
41.0613
41.103
41.1419
41.2352
41.1105
41.4067
41.2239
41.3367
0.0141381
0.125874
-0.238698
0.0247764
-0.0668705
-0.0584509
-0.0467223
-0.0365514
-0.0272884
-0.0188003
-0.0113671
-0.0039004
40.9597
40.9639
40.9755
40.9953
41.0228
41.0576
41.0994
41.1389
41.2304
41.1099
41.4018
41.2222
41.3359
0.0108825
0.121453
-0.242565
0.0214012
-0.0698839
-0.0610744
-0.0489386
-0.0383558
-0.0286828
-0.0197898
-0.0119576
-0.00409617
40.955
40.9594
40.9712
40.9909
41.0184
41.0531
41.095
41.1351
41.2245
41.1091
41.3959
41.2202
41.3347
0.00628746
0.117147
-0.247156
0.0172903
-0.0735763
-0.0642918
-0.0516573
-0.0405692
-0.0303929
-0.0210032
-0.0126815
-0.00433605
40.95
40.9545
40.9663
40.9858
41.0131
41.0477
41.0897
41.1306
41.2176
41.1084
41.3889
41.218
41.3332
0.000695319
0.111576
-0.252547
0.0124444
-0.0779049
-0.0680631
-0.0548432
-0.0431622
-0.032396
-0.0224242
-0.0135291
-0.00461687
40.9446
40.9491
40.9608
40.9801
41.0071
41.0416
41.0836
41.1252
41.2097
41.1067
41.3821
41.2157
41.3317
-0.00574992
0.105246
-0.258649
0.00693045
-0.0828124
-0.0723379
-0.0584536
-0.0460999
-0.0346648
-0.0240335
-0.0144889
-0.00493481
40.939
40.9434
40.9548
40.9738
41.0005
41.0348
41.0768
41.1192
41.2011
41.1041
41.376
41.2134
41.3305
-0.0129509
0.0982093
-0.265384
0.000825469
-0.0882325
-0.0770577
-0.0624389
-0.0493418
-0.037168
-0.0258087
-0.0155476
-0.00528544
40.9331
40.9373
40.9485
40.9671
40.9934
41.0274
41.0693
41.1125
41.1918
41.1016
41.3696
41.2116
41.3296
-0.0207972
0.0905715
-0.272659
-0.00578295
-0.0940898
-0.0821563
-0.0667433
-0.052842
-0.0398701
-0.0277247
-0.0166902
-0.00566381
40.9271
40.9311
40.9419
40.9601
40.9859
41.0195
41.0613
41.1053
41.1821
41.0995
41.3634
41.2104
41.3296
-0.0291642
0.0824459
-0.280372
-0.0127985
-0.1003
-0.0875606
-0.0713052
-0.0565496
-0.0427322
-0.0297536
-0.0178999
-0.00606443
40.921
40.9248
40.9352
40.9529
40.9781
41.0112
41.0529
41.0976
41.1724
41.0978
41.3577
41.2103
41.3306
-0.037909
0.0739491
-0.288409
-0.0201188
-0.106773
-0.0931927
-0.0760588
-0.0604096
-0.0457122
-0.0318654
-0.019159
-0.0064814
40.9149
40.9184
40.9284
40.9455
40.9701
41.0027
41.0442
41.0896
41.1627
41.0967
41.3529
41.2115
41.3332
-0.0472109
0.0651842
-0.296651
-0.0276518
-0.113414
-0.0989746
-0.0809364
-0.064363
-0.0487663
-0.0340283
-0.0204485
-0.00690847
40.9089
40.9122
40.9216
40.9381
40.9621
40.9942
41.0354
41.0815
41.1535
41.0964
41.3492
41.2144
41.3378
-0.0563041
0.0563511
-0.305063
-0.0352618
-0.120204
-0.104863
-0.0858739
-0.0683494
-0.0518513
-0.036209
-0.0217487
-0.0073391
40.9031
40.9061
40.9151
40.9309
40.9542
40.9857
41.0267
41.0735
41.1448
41.0971
41.3471
41.2194
41.3446
-0.0654503
0.0475764
-0.313317
-0.042801
-0.126858
-0.110655
-0.0907727
-0.0724021
-0.0549335
-0.0383753
-0.0230397
-0.00776658
40.8976
40.9004
40.9088
40.9239
40.9465
40.9774
41.0182
41.0656
41.1369
41.0988
41.3468
41.2266
41.3541
-0.0744426
0.0389942
-0.321382
-0.0501618
-0.133358
-0.116304
-0.0955378
-0.0762578
-0.0579267
-0.0405276
-0.0243022
-0.00818412
40.8926
40.895
40.9029
40.9173
40.9392
40.9695
41.01
41.0583
41.1301
41.1015
41.3484
41.2362
41.3662
-0.0831249
0.0307391
-0.329119
-0.057228
-0.139594
-0.121719
-0.100102
-0.0799561
-0.0607847
-0.042552
-0.0255118
-0.0085847
40.888
40.8901
40.8974
40.9112
40.9324
40.9621
41.0025
41.0515
41.1242
41.1052
41.3519
41.248
41.3809
-0.0913562
0.0229545
-0.336391
-0.0638796
-0.145458
-0.126809
-0.10439
-0.0834339
-0.0634679
-0.0444525
-0.0266733
-0.00896204
40.8841
40.8858
40.8925
40.9056
40.9261
40.9554
40.9956
41.0454
41.1195
41.1097
41.357
41.2616
41.3976
-0.0989984
0.0157203
-0.343072
-0.0700088
-0.150849
-0.131488
-0.10833
-0.0866293
-0.0659322
-0.0461959
-0.0277078
-0.00930721
40.8809
40.8822
40.8883
40.9008
40.9206
40.9495
40.9895
41.0401
41.1157
41.1147
41.3632
41.2761
41.4155
-0.105915
0.0092989
-0.349038
-0.075494
-0.155667
-0.13567
-0.111851
-0.0894864
-0.0681334
-0.0477539
-0.0286336
-0.00961958
40.8785
40.8793
40.8848
40.8966
40.916
40.9444
40.9844
41.0357
41.113
41.1198
41.37
41.2907
41.4335
-0.111996
0.00348192
-0.354188
-0.0802909
-0.159838
-0.139284
-0.114892
-0.091953
-0.0700338
-0.0490985
-0.0294329
-0.00988466
40.8771
40.8772
40.882
40.8933
40.9121
40.9402
40.9802
41.0322
41.111
41.1246
41.3767
41.3043
41.4505
-0.117132
-0.00111441
-0.358388
-0.0841915
-0.163259
-0.142257
-0.117396
-0.0939845
-0.0715985
-0.0502052
-0.0300909
-0.0101019
40.8768
40.8759
40.88
40.8908
40.9093
40.9371
40.9771
41.0296
41.1096
41.1287
41.3826
41.3157
41.4652
-0.121279
-0.00518099
-0.361619
-0.0873426
-0.165908
-0.144547
-0.119321
-0.0955448
-0.0727996
-0.0510545
-0.0305959
-0.0102683
40.877
40.8752
40.8787
40.8892
40.9074
40.935
40.975
41.028
41.1088
41.1317
41.3871
41.3242
41.4766
-0.124343
-0.00758474
-0.363758
-0.0893711
-0.167685
-0.146092
-0.120625
-0.0966026
-0.0736139
-0.0516305
-0.0309382
-0.010381
40.8822
40.8756
40.8782
40.8885
40.9065
40.9341
40.9741
41.0273
41.1086
41.1333
41.3911
41.3281
41.4836
-0.126344
-0.00987267
-0.364736
-0.0906172
-0.168612
-0.146879
-0.121291
-0.0971418
-0.0740284
-0.0519235
-0.0311113
-0.0104363
40.9714
40.9696
40.9798
40.9992
41.0266
41.0611
41.1024
41.1404
41.2352
41.1049
41.4119
41.2228
41.3323
0.0145357
0.1262
-0.234648
0.026054
-0.0630392
-0.0549394
-0.043357
-0.0334702
-0.0246433
-0.0167343
-0.0100142
-0.00340133
40.9653
40.9678
40.9788
40.9983
41.0257
41.0602
41.1016
41.1398
41.2341
41.1059
41.4061
41.2212
41.3323
0.0142965
0.126711
-0.235841
0.0254715
-0.0637902
-0.0556393
-0.0439421
-0.0339468
-0.0250121
-0.0169958
-0.0101711
-0.00345475
40.9618
40.9654
40.9768
40.9964
41.0238
41.0583
41.0998
41.1383
41.2315
41.1061
41.4024
41.2196
41.3324
0.0128687
0.123901
-0.238047
0.0234676
-0.0654643
-0.0570451
-0.0451207
-0.0349043
-0.0257511
-0.0175198
-0.0104838
-0.00355862
40.9577
40.9621
40.9739
40.9935
41.0209
41.0554
41.0969
41.1358
41.2275
41.1056
41.3975
41.2178
41.3318
0.0104759
0.122055
-0.240921
0.0210224
-0.0678235
-0.0591202
-0.0468734
-0.0363293
-0.0268509
-0.0182993
-0.0109486
-0.00371273
40.9533
40.9582
40.9702
40.9898
41.0171
41.0516
41.0931
41.1325
41.2222
41.1047
41.3916
41.2156
41.3305
0.00703437
0.117466
-0.24496
0.0174863
-0.0709743
-0.0618575
-0.0491805
-0.0382041
-0.0282974
-0.0193245
-0.0115597
-0.00391514
40.9486
40.9537
40.9658
40.9853
41.0125
41.0468
41.0883
41.1282
41.2157
41.1036
41.3843
41.2129
41.3286
0.00217946
0.112859
-0.249786
0.0131686
-0.0748367
-0.0652154
-0.052012
-0.0405049
-0.0300723
-0.0205821
-0.0123093
-0.00416329
40.9435
40.9487
40.9607
40.9801
41.007
41.0411
41.0825
41.1231
41.208
41.1018
41.3762
41.2097
41.3262
-0.00369671
0.106999
-0.255452
0.0080774
-0.0793678
-0.0691538
-0.0553319
-0.043202
-0.0321524
-0.0220559
-0.0131875
-0.00445396
40.9381
40.9433
40.9551
40.9742
41.0007
41.0346
41.0759
41.117
41.1991
41.0985
41.3683
41.2062
41.3235
-0.0104807
0.100316
-0.261871
0.00228179
-0.0845084
-0.0736209
-0.0590966
-0.0462595
-0.0345099
-0.023726
-0.0141826
-0.00478326
40.9323
40.9374
40.949
40.9677
40.9939
41.0273
41.0684
41.11
41.1892
41.0946
41.3601
41.2024
41.3205
-0.0180645
0.0928854
-0.268961
-0.00413845
-0.0901904
-0.0785568
-0.0632555
-0.0496361
-0.0371129
-0.0255696
-0.015281
-0.00514668
40.9264
40.9313
40.9426
40.9608
40.9864
41.0194
41.0602
41.1023
41.1785
41.0907
41.3511
41.1985
41.3175
-0.0263332
0.0848158
-0.276627
-0.0110926
-0.096336
-0.0838933
-0.0677509
-0.0532847
-0.0399247
-0.0275607
-0.0164672
-0.00553914
40.9203
40.925
40.9358
40.9535
40.9785
41.0109
41.0513
41.0938
41.1672
41.0866
41.3418
41.1948
41.3147
-0.0351506
0.0762265
-0.284761
-0.0184802
-0.102858
-0.0895545
-0.072519
-0.057153
-0.0429051
-0.0296707
-0.0177241
-0.00595499
40.9141
40.9185
40.9289
40.946
40.9703
41.0021
41.042
41.0847
41.1556
41.0827
41.3324
41.1915
41.3123
-0.0443869
0.0672397
-0.293247
-0.026194
-0.109662
-0.0954586
-0.0774915
-0.0611845
-0.0460107
-0.0318685
-0.0190333
-0.00638816
40.9079
40.9121
40.922
40.9384
40.9619
40.9929
41.0322
41.0751
41.1438
41.079
41.3235
41.189
41.3109
-0.0541746
0.0579518
-0.301961
-0.0341316
-0.116649
-0.10152
-0.0825966
-0.0653193
-0.0491957
-0.0341206
-0.0203751
-0.00683217
40.9018
40.9057
40.915
40.9307
40.9534
40.9836
41.0223
41.0653
41.1322
41.0758
41.3154
41.1878
41.3107
-0.0637961
0.0485996
-0.310827
-0.0421561
-0.123779
-0.107704
-0.0877691
-0.0694982
-0.0524147
-0.0363907
-0.0217291
-0.00728025
40.8959
40.8995
40.9083
40.9232
40.945
40.9744
41.0124
41.0555
41.121
41.0733
41.3086
41.1882
41.3125
-0.0734597
0.0393029
-0.31957
-0.050116
-0.130792
-0.113791
-0.0929051
-0.0737013
-0.0556359
-0.0386368
-0.0230749
-0.00772545
40.8904
40.8937
40.9018
40.916
40.9369
40.9654
41.0027
41.0459
41.1105
41.0715
41.3034
41.1906
41.3164
-0.0829682
0.0302038
-0.328111
-0.057894
-0.137647
-0.119731
-0.0979045
-0.0777502
-0.0587665
-0.0409235
-0.0243958
-0.00816078
40.8853
40.8882
40.8957
40.9091
40.9291
40.9567
40.9934
41.0367
41.1011
41.0707
41.3001
41.1955
41.3229
-0.0921467
0.0214465
-0.336311
-0.0653636
-0.144229
-0.125431
-0.102697
-0.0816302
-0.0617558
-0.0430205
-0.0256666
-0.00857863
40.8806
40.8832
40.8901
40.9027
40.9218
40.9486
40.9847
41.0281
41.0927
41.0709
41.2988
41.2026
41.3319
-0.100859
0.0131841
-0.344024
-0.0723982
-0.15042
-0.130793
-0.107204
-0.0852791
-0.0645643
-0.0450021
-0.0268562
-0.00897012
40.8766
40.8788
40.8851
40.8969
40.9152
40.9412
40.9768
41.0203
41.0856
41.072
41.2992
41.2118
41.3432
-0.108943
0.00551188
-0.351115
-0.0788837
-0.156116
-0.135723
-0.111348
-0.0886334
-0.0671451
-0.0468255
-0.0279428
-0.00933402
40.8734
40.8751
40.8807
40.8918
40.9094
40.9347
40.9697
41.0135
41.0796
41.0738
41.3012
41.2218
41.3561
-0.116264
-0.00131577
-0.357449
-0.0846898
-0.16121
-0.140133
-0.115053
-0.0916336
-0.0694521
-0.048456
-0.0289128
-0.00965796
40.8709
40.8721
40.8771
40.8875
40.9043
40.929
40.9637
41.0078
41.0748
41.0761
41.3041
41.2318
41.3697
-0.122702
-0.0074704
-0.36292
-0.0897635
-0.16562
-0.143947
-0.118254
-0.0942252
-0.0714448
-0.0498639
-0.0297497
-0.00993426
40.8695
40.87
40.8742
40.884
40.9003
40.9244
40.9588
41.0032
41.0711
41.0785
41.3073
41.2412
41.3827
-0.128135
-0.0123654
-0.367389
-0.0938989
-0.169241
-0.147084
-0.120891
-0.0963603
-0.0730861
-0.0510234
-0.0304388
-0.0101616
40.8692
40.8686
40.8721
40.8814
40.8972
40.921
40.9551
40.9997
41.0685
41.0808
41.3104
41.2495
41.3941
-0.132514
-0.0166436
-0.370826
-0.0972244
-0.172044
-0.149501
-0.122919
-0.0980004
-0.0743464
-0.0519136
-0.0309678
-0.0103358
40.8693
40.8679
40.8708
40.8797
40.8951
40.9187
40.9527
40.9975
41.0667
41.0825
41.3125
41.2559
41.4028
-0.135771
-0.0192135
-0.373105
-0.0993785
-0.173926
-0.151133
-0.124292
-0.0991128
-0.0752013
-0.0525175
-0.0313265
-0.0104539
40.8745
40.8683
40.8703
40.8789
40.8942
40.9176
40.9516
40.9965
41.0659
41.0838
41.3142
41.26
41.408
-0.137871
-0.0215732
-0.374157
-0.100677
-0.174906
-0.151964
-0.124994
-0.0996797
-0.0756363
-0.0528248
-0.0315082
-0.0105124
40.9641
40.9628
40.973
40.9923
41.0195
41.0537
41.0949
41.133
41.226
41.0985
41.4024
41.2156
41.3259
0.00977341
0.121436
-0.237055
0.0214142
-0.0639748
-0.0554859
-0.0432703
-0.0329429
-0.0238832
-0.0159414
-0.00938073
-0.00312547
40.9579
40.9609
40.972
40.9914
41.0186
41.0528
41.094
41.1323
41.2247
41.0994
41.3961
41.2139
41.3258
0.00950283
0.12189
-0.238288
0.0207691
-0.0647735
-0.0562244
-0.0438859
-0.033443
-0.0242692
-0.0162144
-0.00954414
-0.00318076
40.9544
40.9585
40.97
40.9894
41.0166
41.0508
41.092
41.1306
41.2217
41.0995
41.3917
41.2119
41.3257
0.00793622
0.118941
-0.240626
0.0186645
-0.0665337
-0.0577058
-0.0451253
-0.0344475
-0.025043
-0.016762
-0.00987041
-0.00328899
40.9503
40.9552
40.967
40.9865
41.0136
41.0477
41.0889
41.1278
41.2173
41.0988
41.3859
41.2097
41.3247
0.00537122
0.116858
-0.243699
0.0160365
-0.0690346
-0.0598953
-0.0469693
-0.035943
-0.0261949
-0.0175771
-0.0103558
-0.00344968
40.9458
40.9512
40.9632
40.9827
41.0096
41.0436
41.0846
41.124
41.2114
41.0976
41.3786
41.2067
41.3226
0.00167421
0.112037
-0.247978
0.0122791
-0.0723697
-0.0627847
-0.0493978
-0.0379118
-0.0277108
-0.0186498
-0.0109943
-0.0036609
40.9411
40.9466
40.9587
40.978
41.0047
41.0384
41.0793
41.1191
41.204
41.0957
41.3698
41.203
41.3197
-0.00353233
0.107031
-0.253119
0.00768329
-0.076461
-0.0663308
-0.0523799
-0.0403292
-0.0295719
-0.0199665
-0.0117781
-0.00392004
40.9359
40.9415
40.9535
40.9726
40.9989
41.0323
41.073
41.1131
41.1952
41.0921
41.3607
41.1985
41.316
-0.00982054
0.100769
-0.259157
0.00226058
-0.0812647
-0.0704933
-0.0558792
-0.0431652
-0.0317547
-0.0215105
-0.012697
-0.00422381
40.9304
40.9359
40.9478
40.9664
40.9923
41.0253
41.0656
41.106
41.1849
41.0871
41.3509
41.1932
41.3114
-0.0170753
0.0936078
-0.266004
-0.00391564
-0.0867195
-0.0752186
-0.0598507
-0.046383
-0.0342308
-0.0232617
-0.0137392
-0.00456824
40.9246
40.93
40.9415
40.9597
40.985
41.0174
41.0573
41.0978
41.1735
41.0816
41.3396
41.1871
41.3059
-0.0251895
0.0856409
-0.273575
-0.0107625
-0.0927549
-0.0804448
-0.0642421
-0.0499399
-0.0369671
-0.0251966
-0.0148905
-0.00494872
40.9186
40.9237
40.9349
40.9525
40.9772
41.0089
41.0481
41.0886
41.1608
41.0755
41.327
41.1802
41.2995
-0.0340407
0.0769837
-0.28177
-0.0181851
-0.0992896
-0.086101
-0.0689939
-0.0537874
-0.0399258
-0.0272883
-0.0161351
-0.00535999
40.9123
40.9173
40.9279
40.9449
40.9688
40.9997
41.0381
41.0784
41.1473
41.0688
41.3134
41.1725
41.2923
-0.043498
0.0677638
-0.290477
-0.0260773
-0.106232
-0.0921077
-0.0740394
-0.0578712
-0.0430649
-0.0295071
-0.0174552
-0.00579621
40.906
40.9107
40.9208
40.9371
40.9601
40.99
41.0275
41.0674
41.133
41.0617
41.299
41.1643
41.2844
-0.0533975
0.0581103
-0.299572
-0.0343254
-0.113484
-0.0983783
-0.0793068
-0.0621324
-0.0463387
-0.0318206
-0.0188316
-0.00625107
40.8997
40.9041
40.9136
40.9291
40.9511
40.9799
41.0164
41.0558
41.1183
41.0543
41.2843
41.156
41.2762
-0.0639171
0.0481017
-0.308926
-0.0428157
-0.120939
-0.104822
-0.0847206
-0.0665091
-0.049699
-0.0341942
-0.0202437
-0.00671777
40.8935
40.8976
40.9065
40.9211
40.942
40.9697
41.005
41.0437
41.1034
41.0468
41.2698
41.1481
41.2683
-0.074234
0.0380425
-0.318424
-0.0514042
-0.128538
-0.11141
-0.0902124
-0.0709394
-0.0530988
-0.036592
-0.0216702
-0.00718921
40.8876
40.8913
40.8995
40.9132
40.9331
40.9595
40.9935
41.0315
41.0887
41.0395
41.2559
41.1413
41.2613
-0.0846227
0.0280314
-0.327824
-0.0599367
-0.13604
-0.117894
-0.0956662
-0.0753716
-0.0565165
-0.038978
-0.023089
-0.00765799
40.8819
40.8852
40.8928
40.9056
40.9243
40.9495
40.9823
41.0194
41.0747
41.0326
41.2433
41.1361
41.2559
-0.0948499
0.0182243
-0.337019
-0.0682825
-0.143377
-0.12423
-0.100985
-0.0796717
-0.0598229
-0.0413581
-0.0244789
-0.00811651
40.8767
40.8796
40.8865
40.8984
40.9159
40.9399
40.9714
41.0078
41.0616
41.0266
41.2324
41.1333
41.2528
-0.104736
0.00877796
-0.345854
-0.0763032
-0.150427
-0.130317
-0.106088
-0.0837963
-0.0629901
-0.0435899
-0.0258325
-0.00855711
40.872
40.8745
40.8807
40.8916
40.9081
40.9309
40.9612
40.9968
41.0498
41.0215
41.2236
41.1321
41.2523
-0.114111
-0.000138051
-0.354171
-0.0838617
-0.157066
-0.136047
-0.110892
-0.0876764
-0.0659688
-0.0456898
-0.0270827
-0.00896856
40.8679
40.87
40.8755
40.8855
40.9009
40.9226
40.9518
40.9868
41.0392
41.0175
41.217
41.1321
41.2542
-0.12282
-0.00841236
-0.361822
-0.0908316
-0.163177
-0.141321
-0.115312
-0.0912462
-0.0687077
-0.0476216
-0.028231
-0.00936118
40.8645
40.8662
40.871
40.8801
40.8946
40.9152
40.9435
40.9779
41.0301
41.0146
41.2122
41.1338
41.2582
-0.130707
-0.0157963
-0.368663
-0.0970774
-0.168646
-0.146042
-0.119267
-0.0944405
-0.0711585
-0.0493504
-0.0292579
-0.00969808
40.862
40.8631
40.8672
40.8756
40.8891
40.9089
40.9363
40.9703
41.0226
41.0125
41.2089
41.1365
41.2634
-0.137646
-0.0224158
-0.374574
-0.10253
-0.173384
-0.150126
-0.122687
-0.097201
-0.0732759
-0.050844
-0.0301447
-0.00999001
40.8605
40.8609
40.8642
40.8719
40.8847
40.9037
40.9305
40.9642
41.0165
41.0113
41.2066
41.1395
41.2688
-0.143499
-0.0277198
-0.379412
-0.106985
-0.177278
-0.153488
-0.125505
-0.0994769
-0.0750215
-0.0520751
-0.0308758
-0.0102309
40.8602
40.8595
40.862
40.8691
40.8814
40.8998
40.926
40.9595
41.0118
41.0107
41.2049
41.1422
41.2734
-0.148212
-0.0322889
-0.383132
-0.110549
-0.18029
-0.156079
-0.127672
-0.101226
-0.0763626
-0.0530208
-0.0314372
-0.0104157
40.8602
40.8587
40.8606
40.8673
40.8791
40.8972
40.9231
40.9565
41.0087
41.0105
41.2032
41.144
41.2767
-0.151709
-0.0350845
-0.385603
-0.112874
-0.182317
-0.15783
-0.129141
-0.102412
-0.0772724
-0.0536624
-0.031818
-0.0105408
40.8654
40.8591
40.86
40.8664
40.8781
40.896
40.9217
40.9551
41.0072
41.011
41.2025
41.1449
41.2782
-0.153951
-0.037547
-0.386757
-0.11425
-0.183369
-0.158719
-0.129892
-0.103017
-0.0777355
-0.0539891
-0.0320112
-0.0106034
40.9557
40.9546
40.9648
40.9839
41.0107
41.0446
41.0855
41.1238
41.2145
41.0905
41.3907
41.2067
41.3175
0.00370136
0.115416
-0.239863
0.0156044
-0.0651166
-0.0560356
-0.0430438
-0.0321847
-0.0228542
-0.0148923
-0.00855256
-0.00276763
40.9496
40.9527
40.9638
40.9829
41.0098
41.0437
41.0845
41.1229
41.213