/*--------------------------------*- C++ -*----------------------------------*\
| =========                 |                                                 |
| \\      /  F ield         | OpenFOAM: The Open Source CFD Toolbox           |
|  \\    /   O peration     | Version:  2306                                  |
|   \\  /    A nd           | Website:  www.openfoam.com                      |
|    \\/     M anipulation  |                                                 |
\*---------------------------------------------------------------------------*/
FoamFile
{
    version     2.0;
    format      ascii;
    arch        "LSB;label=32;scalar=64";
    class       volScalarField;
    location    "2.4";
    object      p;
}
// * * * * * * * * * * * * * * * * * * * * * * * * * * * * * * * * * * * * * //

dimensions      [0 2 -2 0 0 0 0];

internalField   nonuniform List<scalar> 
288632
(
49.5897
49.581
49.5901
49.61
49.6383
49.6736
49.7178
49.7468
49.8451
49.7952
49.955
49.9056
49.9627
-0.636521
-0.549855
-0.724582
-0.499043
-0.54486
-0.456333
-0.390162
-0.321284
-0.25068
-0.179223
-0.107807
-0.0360826
49.5831
49.5793
49.5892
49.6092
49.6375
49.6729
49.7172
49.7464
49.8445
49.7951
49.9542
49.9046
49.9626
-0.636984
-0.550441
-0.726009
-0.500039
-0.545904
-0.457255
-0.390929
-0.321912
-0.251166
-0.179569
-0.108015
-0.0361525
49.5802
49.5772
49.5875
49.6075
49.6359
49.6712
49.7156
49.7453
49.843
49.7952
49.9527
49.9038
49.9628
-0.638949
-0.553078
-0.728685
-0.502353
-0.548035
-0.4591
-0.392484
-0.32318
-0.252147
-0.180265
-0.108431
-0.0362911
49.5762
49.5742
49.5849
49.605
49.6334
49.6687
49.7132
49.7435
49.8406
49.7951
49.9502
49.9034
49.9629
-0.642572
-0.556726
-0.732634
-0.505748
-0.551199
-0.461833
-0.394798
-0.325067
-0.253608
-0.181303
-0.109052
-0.0364972
49.5721
49.5707
49.5816
49.6018
49.6301
49.6654
49.7099
49.7411
49.8373
49.7949
49.9469
49.9027
49.9627
-0.647668
-0.562006
-0.737814
-0.510316
-0.555372
-0.465435
-0.397846
-0.327551
-0.25553
-0.182668
-0.109867
-0.0367679
49.5679
49.5667
49.5777
49.5979
49.6261
49.6614
49.7058
49.738
49.8332
49.7944
49.9433
49.902
49.9624
-0.654134
-0.568373
-0.744133
-0.515906
-0.560475
-0.469849
-0.401582
-0.330597
-0.257887
-0.184342
-0.110867
-0.0370997
49.5633
49.5623
49.5733
49.5933
49.6214
49.6566
49.701
49.7344
49.8284
49.7935
49.9394
49.9014
49.9622
-0.661876
-0.576005
-0.751531
-0.522488
-0.566454
-0.47502
-0.405958
-0.334165
-0.260646
-0.186303
-0.112038
-0.0374882
49.5585
49.5575
49.5684
49.5883
49.6161
49.6512
49.6956
49.7301
49.823
49.7927
49.9351
49.9008
49.9621
-0.670764
-0.584635
-0.759884
-0.529949
-0.573218
-0.480875
-0.410913
-0.338203
-0.26377
-0.188522
-0.113363
-0.0379279
49.5535
49.5524
49.5631
49.5827
49.6103
49.6452
49.6896
49.7254
49.817
49.7914
49.9311
49.9006
49.9624
-0.680649
-0.594196
-0.769087
-0.538187
-0.580673
-0.487332
-0.416375
-0.342655
-0.267214
-0.190968
-0.114825
-0.0384127
49.5482
49.5471
49.5575
49.5768
49.6041
49.6388
49.6831
49.7203
49.8106
49.789
49.9285
49.9008
49.9633
-0.69138
-0.604525
-0.779002
-0.547079
-0.588711
-0.494296
-0.422267
-0.347458
-0.270929
-0.193607
-0.116401
-0.0389356
49.5429
49.5416
49.5517
49.5707
49.5975
49.632
49.6762
49.7148
49.804
49.7869
49.9261
49.9016
49.9651
-0.70279
-0.615468
-0.789483
-0.556493
-0.597214
-0.501665
-0.428502
-0.352539
-0.274859
-0.196399
-0.118068
-0.0394889
49.5375
49.536
49.5458
49.5643
49.5908
49.6249
49.6692
49.7092
49.7972
49.7853
49.9243
49.9034
49.9681
-0.714704
-0.626854
-0.800372
-0.566284
-0.606053
-0.509328
-0.434985
-0.357823
-0.278947
-0.199302
-0.119803
-0.0400643
49.5322
49.5305
49.5399
49.5579
49.5839
49.6178
49.662
49.7035
49.7905
49.784
49.9234
49.9065
49.9725
-0.726939
-0.638506
-0.811501
-0.576302
-0.615094
-0.517166
-0.441617
-0.363229
-0.283129
-0.202273
-0.121577
-0.0406531
49.5269
49.525
49.534
49.5515
49.577
49.6106
49.6548
49.698
49.784
49.7834
49.9236
49.9112
49.9787
-0.739299
-0.650237
-0.822694
-0.586387
-0.624193
-0.525057
-0.448294
-0.368672
-0.28734
-0.205264
-0.123364
-0.0412459
49.5219
49.5197
49.5283
49.5453
49.5703
49.6036
49.6478
49.6926
49.7778
49.7834
49.925
49.9176
49.9868
-0.751594
-0.661863
-0.833773
-0.59638
-0.633205
-0.532874
-0.454909
-0.374066
-0.291512
-0.208227
-0.125134
-0.0418333
49.5171
49.5147
49.5228
49.5393
49.5638
49.5968
49.641
49.6875
49.7722
49.7842
49.9279
49.9258
49.9971
-0.763618
-0.673196
-0.844556
-0.606118
-0.641984
-0.54049
-0.461356
-0.379321
-0.295578
-0.211116
-0.126859
-0.0424059
49.5128
49.5101
49.5177
49.5336
49.5576
49.5903
49.6347
49.6827
49.7672
49.7856
49.9321
49.9355
50.0093
-0.775182
-0.684052
-0.854866
-0.615443
-0.650385
-0.547781
-0.467527
-0.384353
-0.299471
-0.213881
-0.128511
-0.0429541
49.5089
49.5059
49.513
49.5284
49.5519
49.5843
49.6288
49.6785
49.7629
49.7877
49.9375
49.9468
50.0231
-0.78609
-0.694248
-0.864528
-0.624197
-0.658265
-0.554622
-0.473318
-0.389075
-0.303125
-0.216477
-0.130062
-0.0434686
49.5055
49.5022
49.5088
49.5237
49.5467
49.5789
49.6235
49.6748
49.7593
49.7903
49.944
49.9589
50.038
-0.796171
-0.703642
-0.873382
-0.63224
-0.665492
-0.560901
-0.478632
-0.393408
-0.306478
-0.218859
-0.131485
-0.0439408
49.5028
49.4991
49.5052
49.5195
49.5421
49.574
49.6188
49.6716
49.7565
49.7931
49.9511
49.9713
50.0535
-0.805255
-0.712042
-0.881263
-0.639424
-0.671937
-0.566505
-0.483376
-0.397277
-0.309471
-0.220985
-0.132755
-0.0443623
49.5009
49.4967
49.5022
49.516
49.5382
49.5699
49.6149
49.669
49.7543
49.7961
49.9582
49.9832
50.0686
-0.813201
-0.719378
-0.888056
-0.645649
-0.677498
-0.571342
-0.487469
-0.400614
-0.312053
-0.222819
-0.133851
-0.0447258
49.4999
49.4949
49.4998
49.5132
49.535
49.5666
49.6117
49.6669
49.7527
49.7988
49.9649
49.9942
50.0826
-0.819887
-0.725427
-0.893614
-0.650776
-0.682062
-0.575318
-0.490835
-0.403359
-0.314177
-0.224329
-0.134752
-0.0450248
49.5002
49.4938
49.4981
49.5111
49.5326
49.5641
49.6093
49.6654
49.7517
49.8011
49.9707
50.0034
50.0945
-0.825211
-0.730291
-0.897868
-0.654761
-0.685571
-0.578373
-0.493419
-0.405466
-0.315807
-0.225486
-0.135444
-0.0452538
49.4999
49.4931
49.497
49.5097
49.531
49.5624
49.6078
49.6645
49.7511
49.8028
49.9748
50.0102
50.1035
-0.829089
-0.73349
-0.90072
-0.657462
-0.687946
-0.580434
-0.49517
-0.406893
-0.316911
-0.226271
-0.135912
-0.0454087
49.5061
49.4937
49.4965
49.5091
49.5303
49.5617
49.607
49.6641
49.7509
49.8041
49.9776
50.0136
50.1094
-0.831456
-0.73586
-0.902094
-0.658961
-0.689171
-0.581474
-0.496066
-0.407622
-0.317474
-0.22667
-0.136149
-0.0454863
49.5823
49.5784
49.5883
49.6082
49.6365
49.6717
49.7159
49.7451
49.8431
49.7934
49.9525
49.9033
49.9615
-0.638823
-0.552041
-0.727091
-0.501099
-0.546114
-0.457532
-0.390866
-0.321655
-0.250819
-0.179226
-0.107759
-0.0360488
49.5757
49.5764
49.5875
49.6074
49.6357
49.671
49.7153
49.7446
49.8424
49.7944
49.948
49.9023
49.9616
-0.639251
-0.552654
-0.728545
-0.502117
-0.547178
-0.458471
-0.391644
-0.322292
-0.251313
-0.179576
-0.107969
-0.0361196
49.5729
49.5743
49.5857
49.6057
49.634
49.6693
49.7137
49.7435
49.8408
49.7948
49.9457
49.9015
49.962
-0.641244
-0.555343
-0.731268
-0.50447
-0.549341
-0.460343
-0.393221
-0.323576
-0.252306
-0.180282
-0.108391
-0.0362598
49.5689
49.5714
49.583
49.6032
49.6315
49.6668
49.7112
49.7417
49.8383
49.795
49.9425
49.9009
49.9621
-0.644922
-0.559064
-0.735286
-0.507925
-0.552554
-0.463118
-0.395568
-0.325489
-0.253786
-0.181332
-0.109019
-0.0364683
49.5648
49.568
49.5797
49.5999
49.6282
49.6634
49.7078
49.7391
49.8348
49.795
49.9385
49.9001
49.9619
-0.650092
-0.564439
-0.740556
-0.512569
-0.556792
-0.466773
-0.398658
-0.328006
-0.255732
-0.182714
-0.109844
-0.0367422
49.5605
49.564
49.5758
49.596
49.6241
49.6593
49.7036
49.7359
49.8305
49.7944
49.9344
49.8993
49.9616
-0.656652
-0.570925
-0.746985
-0.518253
-0.561975
-0.471253
-0.402448
-0.331094
-0.258119
-0.18441
-0.110856
-0.037078
49.5559
49.5595
49.5713
49.5914
49.6194
49.6544
49.6987
49.7321
49.8254
49.793
49.9305
49.8984
49.9612
-0.664505
-0.578696
-0.754514
-0.524947
-0.568049
-0.476503
-0.406887
-0.33471
-0.260915
-0.186395
-0.112042
-0.0374712
49.5511
49.5547
49.5664
49.5863
49.614
49.6489
49.6931
49.7276
49.8197
49.7912
49.9264
49.8976
49.9609
-0.67352
-0.587485
-0.763015
-0.532535
-0.574922
-0.482449
-0.411914
-0.338805
-0.264081
-0.188642
-0.113384
-0.0379165
49.5461
49.5496
49.5611
49.5807
49.6081
49.6428
49.6869
49.7226
49.8134
49.7889
49.9226
49.8969
49.961
-0.683548
-0.597224
-0.772384
-0.540916
-0.582499
-0.489006
-0.417458
-0.34332
-0.267572
-0.191121
-0.114864
-0.0384075
49.5408
49.5442
49.5555
49.5747
49.6018
49.6362
49.6802
49.7172
49.8066
49.7863
49.9191
49.8966
49.9615
-0.694434
-0.607746
-0.78248
-0.549964
-0.59067
-0.496082
-0.423439
-0.348192
-0.271339
-0.193796
-0.116461
-0.0389371
49.5355
49.5387
49.5496
49.5685
49.5951
49.6293
49.6731
49.7114
49.7995
49.7838
49.9159
49.897
49.963
-0.706012
-0.618895
-0.793156
-0.559544
-0.599316
-0.50357
-0.429769
-0.353349
-0.275325
-0.196626
-0.118151
-0.0394978
49.5301
49.5331
49.5437
49.5621
49.5883
49.6221
49.6658
49.7054
49.7923
49.7814
49.9132
49.8982
49.9655
-0.718104
-0.630498
-0.804248
-0.569511
-0.608307
-0.511358
-0.436354
-0.358712
-0.279472
-0.199571
-0.11991
-0.040081
49.5247
49.5275
49.5377
49.5556
49.5813
49.6147
49.6583
49.6993
49.785
49.7794
49.9113
49.9006
49.9694
-0.73052
-0.642371
-0.815587
-0.57971
-0.617504
-0.519327
-0.443092
-0.364201
-0.283716
-0.202584
-0.121709
-0.0406779
49.5194
49.522
49.5318
49.5491
49.5743
49.6074
49.6508
49.6933
49.7778
49.7778
49.9105
49.9045
49.9749
-0.743067
-0.65433
-0.826994
-0.589981
-0.626763
-0.527351
-0.449877
-0.369729
-0.28799
-0.205619
-0.123521
-0.0412791
49.5144
49.5167
49.526
49.5428
49.5674
49.6001
49.6435
49.6874
49.771
49.7769
49.9108
49.91
49.9823
-0.755545
-0.666181
-0.838286
-0.600159
-0.635937
-0.535302
-0.456602
-0.375208
-0.292226
-0.208627
-0.125318
-0.0418751
49.5096
49.5117
49.5205
49.5367
49.5608
49.5931
49.6364
49.6817
49.7647
49.7765
49.9126
49.9172
49.9917
-0.767753
-0.677733
-0.849279
-0.610079
-0.644875
-0.543051
-0.463157
-0.380549
-0.296356
-0.211559
-0.127069
-0.0424561
49.5052
49.507
49.5153
49.531
49.5544
49.5864
49.6297
49.6765
49.759
49.7769
49.9156
49.926
50.0032
-0.779487
-0.688802
-0.859792
-0.61958
-0.65343
-0.55047
-0.469432
-0.385662
-0.300311
-0.214367
-0.128746
-0.0430125
49.5013
49.5028
49.5106
49.5257
49.5486
49.5802
49.6235
49.6717
49.754
49.7778
49.9199
49.9362
50.0163
-0.790561
-0.699197
-0.869644
-0.6285
-0.661455
-0.557434
-0.475324
-0.390463
-0.304024
-0.217004
-0.130321
-0.0435349
49.498
49.4991
49.5064
49.5209
49.5432
49.5745
49.6178
49.6675
49.7498
49.7793
49.9252
49.9474
50.0306
-0.800794
-0.708774
-0.878674
-0.636697
-0.668817
-0.563825
-0.48073
-0.394869
-0.307431
-0.219423
-0.131766
-0.0440143
49.4953
49.496
49.5027
49.5167
49.5385
49.5695
49.6129
49.6638
49.7464
49.7811
49.9311
49.9588
50.0455
-0.810017
-0.717337
-0.886713
-0.644018
-0.675384
-0.569531
-0.485557
-0.398804
-0.310474
-0.221584
-0.133056
-0.0444425
49.4933
49.4935
49.4996
49.5131
49.5345
49.5652
49.6087
49.6607
49.7437
49.7831
49.9372
49.9698
50.0601
-0.818077
-0.724815
-0.893642
-0.650363
-0.68105
-0.574456
-0.489722
-0.402198
-0.313099
-0.223448
-0.13417
-0.0448117
49.4923
49.4917
49.4972
49.5102
49.5313
49.5618
49.6053
49.6583
49.7417
49.785
49.9429
49.98
50.0736
-0.824863
-0.730979
-0.899311
-0.655587
-0.685702
-0.578505
-0.493149
-0.404991
-0.315259
-0.224982
-0.135086
-0.0451155
49.4925
49.4907
49.4955
49.5081
49.5288
49.5591
49.6027
49.6565
49.7403
49.7867
49.9479
49.9885
50.085
-0.830264
-0.735929
-0.90365
-0.659647
-0.689277
-0.581615
-0.495779
-0.407134
-0.316916
-0.226159
-0.135788
-0.0453482
49.4922
49.49
49.4943
49.5067
49.5272
49.5574
49.601
49.6554
49.7394
49.7879
49.9517
49.9948
50.0936
-0.834196
-0.73919
-0.906558
-0.662399
-0.691697
-0.583713
-0.497561
-0.408586
-0.318039
-0.226956
-0.136264
-0.0455056
49.4983
49.4906
49.4939
49.5061
49.5265
49.5566
49.6002
49.6549
49.7391
49.7884
49.9555
49.9972
50.0988
-0.836599
-0.741584
-0.907958
-0.663921
-0.692941
-0.584769
-0.498471
-0.409326
-0.31861
-0.227362
-0.136505
-0.0455844
49.5774
49.5744
49.5846
49.6045
49.6327
49.6678
49.7119
49.7412
49.8386
49.7903
49.9478
49.8994
49.9587
-0.644036
-0.557749
-0.731802
-0.505086
-0.548346
-0.459595
-0.392002
-0.322161
-0.250905
-0.179086
-0.107564
-0.0359413
49.571
49.5724
49.5837
49.6037
49.6319
49.6671
49.7112
49.7408
49.8379
49.7915
49.9424
49.8984
49.959
-0.644481
-0.5584
-0.733296
-0.506143
-0.549441
-0.460561
-0.392802
-0.322815
-0.251411
-0.179444
-0.107779
-0.0360135
49.5681
49.5703
49.5819
49.602
49.6302
49.6653
49.7095
49.7395
49.8361
49.7921
49.9397
49.8975
49.9595
-0.646549
-0.561188
-0.73611
-0.508573
-0.551669
-0.462486
-0.394422
-0.324132
-0.252429
-0.180167
-0.10821
-0.0361569
49.564
49.5674
49.5793
49.5994
49.6276
49.6627
49.7069
49.7376
49.8334
49.7924
49.9358
49.8966
49.9595
-0.650348
-0.565048
-0.740264
-0.512143
-0.55498
-0.465342
-0.396834
-0.326095
-0.253945
-0.181242
-0.108853
-0.0363701
49.5599
49.5639
49.5759
49.5961
49.6242
49.6592
49.7033
49.7348
49.8296
49.7921
49.9314
49.8956
49.9591
-0.655692
-0.570618
-0.745714
-0.516941
-0.559347
-0.469105
-0.400009
-0.328678
-0.255941
-0.182658
-0.109698
-0.0366503
49.5556
49.5599
49.572
49.5921
49.62
49.655
49.699
49.7313
49.8249
49.7907
49.9272
49.8944
49.9584
-0.66247
-0.577345
-0.752366
-0.522816
-0.564692
-0.473717
-0.403905
-0.331848
-0.258389
-0.184395
-0.110734
-0.0369941
49.551
49.5554
49.5675
49.5874
49.6152
49.6499
49.6938
49.7271
49.8193
49.7885
49.9227
49.8929
49.9575
-0.670586
-0.585401
-0.760158
-0.529734
-0.570956
-0.479125
-0.408471
-0.335562
-0.261257
-0.18643
-0.111949
-0.0373968
49.5461
49.5505
49.5625
49.5822
49.6096
49.6441
49.6879
49.7222
49.813
49.7858
49.9178
49.8913
49.9566
-0.679902
-0.594517
-0.768961
-0.53758
-0.578048
-0.485251
-0.413643
-0.33977
-0.264507
-0.188736
-0.113325
-0.037853
49.541
49.5454
49.5571
49.5765
49.6036
49.6378
49.6813
49.7167
49.806
49.7826
49.9128
49.8896
49.9557
-0.690265
-0.604617
-0.778665
-0.546248
-0.58587
-0.492012
-0.41935
-0.344412
-0.268092
-0.191279
-0.114843
-0.0383563
49.5357
49.54
49.5514
49.5704
49.5971
49.6309
49.6742
49.7107
49.7985
49.7791
49.9076
49.8881
49.9552
-0.701518
-0.615534
-0.789127
-0.555611
-0.59431
-0.49931
-0.42551
-0.349424
-0.271963
-0.194025
-0.116482
-0.0388996
49.5303
49.5344
49.5455
49.564
49.5902
49.6237
49.6666
49.7042
49.7904
49.7753
49.9026
49.8869
49.9551
-0.713489
-0.627105
-0.800194
-0.565528
-0.603245
-0.507037
-0.432034
-0.354731
-0.276061
-0.196933
-0.118217
-0.039475
49.5249
49.5287
49.5394
49.5575
49.5831
49.6161
49.6587
49.6974
49.782
49.7714
49.8979
49.8863
49.9559
-0.725994
-0.63915
-0.811699
-0.57585
-0.612541
-0.515079
-0.438823
-0.360254
-0.280328
-0.19996
-0.120024
-0.0400739
49.5195
49.523
49.5333
49.5508
49.5759
49.6084
49.6507
49.6904
49.7735
49.7677
49.8937
49.8867
49.9578
-0.738837
-0.65148
-0.823464
-0.586416
-0.622055
-0.523311
-0.445774
-0.36591
-0.284696
-0.203059
-0.121873
-0.0406872
49.5142
49.5175
49.5273
49.5442
49.5686
49.6006
49.6425
49.6834
49.7651
49.7642
49.8903
49.8883
49.961
-0.751817
-0.663899
-0.835304
-0.597061
-0.631639
-0.531605
-0.452779
-0.371609
-0.289098
-0.206182
-0.123737
-0.0413054
49.5091
49.5121
49.5214
49.5377
49.5614
49.5929
49.6345
49.6764
49.7569
49.7611
49.8879
49.8913
49.9659
-0.764726
-0.676211
-0.847029
-0.607614
-0.641139
-0.539827
-0.459724
-0.377261
-0.293463
-0.209279
-0.125586
-0.0419184
49.5042
49.507
49.5158
49.5315
49.5545
49.5854
49.6267
49.6697
49.7491
49.7585
49.8867
49.896
49.9726
-0.777355
-0.688215
-0.858448
-0.617903
-0.650399
-0.547845
-0.466497
-0.382773
-0.297721
-0.2123
-0.127389
-0.0425165
49.4998
49.5023
49.5106
49.5256
49.5479
49.5783
49.6193
49.6633
49.742
49.7565
49.8868
49.9016
49.9811
-0.789498
-0.699718
-0.86937
-0.627759
-0.659266
-0.555524
-0.472985
-0.388054
-0.301801
-0.215195
-0.129117
-0.0430894
49.4958
49.498
49.5057
49.5201
49.5418
49.5716
49.6124
49.6575
49.7355
49.7552
49.8881
49.9088
49.9912
-0.800959
-0.710523
-0.87961
-0.637017
-0.667588
-0.562735
-0.479078
-0.393014
-0.305632
-0.217914
-0.13074
-0.0436277
49.4924
49.4942
49.5014
49.5151
49.5362
49.5655
49.6061
49.6521
49.7299
49.7544
49.8905
49.9168
50.0026
-0.811549
-0.720476
-0.888997
-0.645524
-0.675224
-0.569355
-0.484672
-0.397567
-0.309151
-0.22041
-0.13223
-0.0441219
49.4897
49.4911
49.4977
49.5108
49.5313
49.5601
49.6005
49.6475
49.7252
49.7541
49.8937
49.9252
50.0146
-0.821091
-0.729377
-0.897355
-0.653124
-0.682038
-0.575268
-0.489668
-0.401635
-0.312293
-0.22264
-0.133562
-0.0445634
49.4877
49.4886
49.4946
49.5071
49.5271
49.5555
49.5958
49.6435
49.7213
49.7542
49.8973
49.9335
50.0265
-0.829435
-0.737146
-0.904561
-0.659711
-0.687918
-0.580372
-0.49398
-0.405145
-0.315005
-0.224565
-0.13471
-0.0449443
49.4866
49.4868
49.4921
49.5041
49.5236
49.5518
49.5919
49.6404
49.7183
49.7545
49.9009
49.9412
50.0375
-0.836452
-0.743553
-0.910458
-0.665136
-0.692747
-0.584569
-0.497528
-0.408034
-0.317238
-0.226149
-0.135656
-0.0452578
49.4869
49.4857
49.4903
49.5019
49.521
49.5489
49.589
49.638
49.7161
49.7548
49.9042
49.9478
50.0469
-0.842036
-0.748693
-0.914973
-0.669349
-0.696459
-0.587793
-0.500252
-0.410251
-0.318951
-0.227364
-0.136381
-0.045498
49.4866
49.485
49.4891
49.5005
49.5193
49.547
49.587
49.6364
49.7147
49.7551
49.9067
49.9527
50.0538
-0.846102
-0.752083
-0.917999
-0.672206
-0.698971
-0.58997
-0.502098
-0.411754
-0.320112
-0.228188
-0.136873
-0.0456606
49.4926
49.4856
49.4887
49.4998
49.5186
49.5462
49.5861
49.6357
49.7141
49.7553
49.9096
49.9555
50.0577
-0.848582
-0.754556
-0.919462
-0.67378
-0.700264
-0.591065
-0.503041
-0.41252
-0.320702
-0.228607
-0.137122
-0.0457421
49.5707
49.5686
49.5791
49.599
49.627
49.6619
49.7058
49.7354
49.8319
49.7853
49.9403
49.8941
49.9541
-0.652796
-0.566041
-0.738595
-0.510969
-0.551544
-0.462522
-0.393562
-0.322787
-0.250921
-0.178787
-0.107212
-0.0357569
49.5642
49.5668
49.5782
49.5982
49.6262
49.6611
49.705
49.7348
49.831
49.7867
49.9343
49.893
49.9544
-0.653296
-0.566763
-0.740156
-0.512084
-0.552686
-0.463529
-0.394394
-0.323465
-0.251444
-0.179158
-0.107434
-0.0358312
49.5613
49.5646
49.5764
49.5964
49.6244
49.6593
49.7032
49.7335
49.8291
49.7874
49.931
49.8918
49.9548
-0.655489
-0.569703
-0.743109
-0.514632
-0.555012
-0.465535
-0.396078
-0.324832
-0.252499
-0.179905
-0.107879
-0.0359792
49.5572
49.5616
49.5737
49.5938
49.6218
49.6566
49.7004
49.7313
49.8259
49.7875
49.9264
49.8906
49.9546
-0.659493
-0.573784
-0.747469
-0.518376
-0.55847
-0.468511
-0.398586
-0.326869
-0.25407
-0.181019
-0.108544
-0.0361994
49.5531
49.5581
49.5704
49.5904
49.6182
49.6529
49.6966
49.7282
49.8217
49.7863
49.9218
49.8892
49.9538
-0.665118
-0.579653
-0.753192
-0.523407
-0.563032
-0.472435
-0.401891
-0.329552
-0.256139
-0.182485
-0.109418
-0.0364891
49.5487
49.554
49.5663
49.5863
49.6139
49.6484
49.6919
49.7243
49.8164
49.784
49.9169
49.8872
49.9525
-0.672249
-0.586747
-0.760183
-0.52957
-0.568619
-0.477248
-0.405946
-0.332846
-0.258679
-0.184285
-0.110491
-0.0368448
49.5441
49.5494
49.5617
49.5815
49.6088
49.6431
49.6864
49.7196
49.8102
49.7809
49.9113
49.8848
49.9507
-0.680782
-0.595237
-0.768374
-0.536829
-0.575171
-0.482893
-0.410702
-0.336707
-0.261656
-0.186395
-0.111749
-0.0372617
49.5392
49.5445
49.5567
49.5761
49.6031
49.637
49.68
49.714
49.803
49.7771
49.9051
49.8819
49.9485
-0.690581
-0.60485
-0.777635
-0.545066
-0.582594
-0.489293
-0.416093
-0.341084
-0.265032
-0.188787
-0.113176
-0.0377343
49.534
49.5392
49.5512
49.5703
49.5968
49.6303
49.6729
49.7077
49.795
49.7725
49.8983
49.8786
49.946
-0.701484
-0.615502
-0.78785
-0.55417
-0.590787
-0.49636
-0.422046
-0.345918
-0.268759
-0.191428
-0.114751
-0.0382561
49.5287
49.5338
49.5453
49.564
49.59
49.623
49.6651
49.7008
49.7862
49.7674
49.891
49.875
49.9433
-0.713329
-0.627022
-0.79887
-0.56401
-0.599634
-0.503994
-0.428476
-0.35114
-0.272786
-0.194281
-0.116453
-0.0388199
49.5232
49.5281
49.5393
49.5574
49.5828
49.6152
49.6568
49.6932
49.7767
49.7616
49.8833
49.8713
49.9406
-0.72593
-0.639236
-0.810534
-0.574439
-0.609007
-0.512084
-0.435292
-0.356674
-0.277054
-0.197306
-0.118256
-0.0394174
49.5177
49.5223
49.5331
49.5506
49.5754
49.6071
49.6481
49.6852
49.7666
49.7554
49.8753
49.8678
49.9381
-0.739101
-0.651956
-0.822668
-0.585301
-0.618767
-0.52051
-0.442391
-0.362439
-0.281499
-0.200456
-0.120135
-0.04004
49.5122
49.5166
49.5269
49.5438
49.5678
49.5988
49.6392
49.6769
49.7563
49.7489
49.8674
49.8647
49.9361
-0.752631
-0.664983
-0.835083
-0.596427
-0.628764
-0.529142
-0.449666
-0.368347
-0.286056
-0.203685
-0.122061
-0.0406781
49.5069
49.5109
49.5207
49.5369
49.5601
49.5904
49.6301
49.6683
49.7458
49.7423
49.8598
49.8623
49.9349
-0.766309
-0.67811
-0.847586
-0.607641
-0.638842
-0.537845
-0.457002
-0.374306
-0.290651
-0.206942
-0.124003
-0.0413217
49.5017
49.5055
49.5147
49.5302
49.5526
49.5821
49.621
49.6598
49.7354
49.7358
49.8529
49.861
49.9349
-0.779915
-0.691128
-0.859973
-0.618766
-0.648838
-0.546481
-0.464282
-0.38022
-0.295212
-0.210174
-0.125931
-0.0419607
49.4968
49.5003
49.5089
49.5237
49.5452
49.5739
49.6122
49.6514
49.7254
49.7296
49.8469
49.8602
49.9363
-0.79323
-0.703823
-0.872042
-0.629618
-0.658589
-0.554906
-0.471387
-0.385992
-0.299665
-0.213329
-0.127813
-0.0425844
49.4923
49.4954
49.5035
49.5175
49.5382
49.5661
49.6037
49.6433
49.7159
49.7239
49.8421
49.8609
49.9391
-0.806033
-0.715991
-0.883592
-0.640018
-0.667931
-0.562982
-0.478197
-0.391526
-0.303934
-0.216355
-0.129617
-0.0431825
49.4883
49.4911
49.4985
49.5118
49.5317
49.5588
49.5957
49.6358
49.7071
49.7188
49.8385
49.8624
49.9434
-0.81812
-0.727422
-0.894425
-0.649791
-0.676705
-0.570569
-0.484598
-0.396727
-0.307946
-0.219199
-0.131314
-0.0437447
49.4848
49.4872
49.4941
49.5066
49.5257
49.5521
49.5884
49.6288
49.6993
49.7145
49.8361
49.8649
49.9488
-0.829285
-0.737951
-0.904358
-0.658774
-0.68476
-0.577539
-0.490477
-0.401505
-0.311632
-0.221811
-0.132872
-0.0442613
49.482
49.484
49.4903
49.5021
49.5205
49.5462
49.5819
49.6226
49.6924
49.7108
49.8347
49.8681
49.9551
-0.839345
-0.747367
-0.913206
-0.666801
-0.69195
-0.583766
-0.495731
-0.405776
-0.314927
-0.224147
-0.134265
-0.0447232
49.48
49.4815
49.487
49.4982
49.5159
49.5411
49.5763
49.6173
49.6867
49.7078
49.8341
49.8716
49.9615
-0.84814
-0.755581
-0.920836
-0.673758
-0.698158
-0.589144
-0.500267
-0.409463
-0.317772
-0.226163
-0.135468
-0.0451218
49.4789
49.4796
49.4845
49.4951
49.5123
49.5369
49.5718
49.613
49.682
49.7055
49.834
49.8749
49.9676
-0.855535
-0.762356
-0.927081
-0.679487
-0.703257
-0.593567
-0.504001
-0.412499
-0.320115
-0.227824
-0.136459
-0.0454501
49.4791
49.4785
49.4826
49.4928
49.5095
49.5337
49.5683
49.6097
49.6785
49.7039
49.8342
49.8777
49.9727
-0.861412
-0.767777
-0.931865
-0.683936
-0.707179
-0.596967
-0.506869
-0.414829
-0.321912
-0.229098
-0.137219
-0.0457018
49.4787
49.4778
49.4814
49.4913
49.5076
49.5316
49.566
49.6074
49.6761
49.7028
49.8344
49.8798
49.9764
-0.865686
-0.771361
-0.935071
-0.686953
-0.709833
-0.599262
-0.508812
-0.416409
-0.323132
-0.229962
-0.137734
-0.0458722
49.4847
49.4784
49.4809
49.4906
49.5068
49.5306
49.5649
49.6064
49.675
49.7024
49.8352
49.8811
49.9782
-0.868283
-0.773931
-0.936626
-0.688605
-0.711198
-0.600416
-0.509804
-0.417214
-0.323752
-0.230402
-0.137996
-0.0459579
49.5629
49.5614
49.572
49.5918
49.6195
49.654
49.6976
49.7275
49.8228
49.7786
49.9304
49.8868
49.9474
-0.664841
-0.577237
-0.747518
-0.518755
-0.555669
-0.466245
-0.395477
-0.323467
-0.25081
-0.178289
-0.106678
-0.0354871
49.5564
49.5596
49.571
49.5909
49.6186
49.6532
49.6967
49.7269
49.8218
49.7802
49.9238
49.8856
49.9477
-0.665418
-0.578053
-0.749167
-0.519948
-0.556875
-0.467306
-0.396351
-0.324177
-0.251357
-0.178676
-0.106908
-0.0355641
49.5535
49.5574
49.5692
49.5891
49.6168
49.6513
49.6948
49.7253
49.8195
49.7807
49.92
49.8841
49.9479
-0.667788
-0.5812
-0.752306
-0.522655
-0.559333
-0.469421
-0.398121
-0.32561
-0.25246
-0.179456
-0.107373
-0.0357181
49.5494
49.5543
49.5665
49.5864
49.614
49.6484
49.6917
49.7228
49.816
49.78
49.9152
49.8826
49.9473
-0.672077
-0.585581
-0.756945
-0.526634
-0.562988
-0.472559
-0.400758
-0.327747
-0.254104
-0.18062
-0.108066
-0.0359477
49.5452
49.5507
49.5631
49.5829
49.6103
49.6445
49.6876
49.7193
49.8111
49.7778
49.9101
49.8804
49.9459
-0.678089
-0.591856
-0.76304
-0.53198
-0.567813
-0.4767
-0.404234
-0.330562
-0.256271
-0.182153
-0.108979
-0.03625
49.5408
49.5465
49.559
49.5786
49.6058
49.6397
49.6826
49.7149
49.8052
49.7746
49.9041
49.8775
49.9436
-0.685707
-0.59945
-0.770489
-0.538532
-0.573726
-0.48178
-0.408503
-0.33402
-0.258933
-0.184036
-0.110101
-0.0366213
49.5362
49.5419
49.5543
49.5737
49.6005
49.634
49.6765
49.7094
49.798
49.7704
49.8971
49.8737
49.9404
-0.694829
-0.608529
-0.779221
-0.546251
-0.580665
-0.487744
-0.413512
-0.338077
-0.262055
-0.186246
-0.111417
-0.0370571
49.5312
49.5369
49.5491
49.5681
49.5945
49.6276
49.6695
49.703
49.7897
49.765
49.8889
49.869
49.9364
-0.705301
-0.618817
-0.789104
-0.555016
-0.588534
-0.494511
-0.419196
-0.342682
-0.265599
-0.188753
-0.112911
-0.0375515
49.526
49.5316
49.5434
49.5621
49.5879
49.6204
49.6617
49.6957
49.7803
49.7587
49.8797
49.8633
49.9315
-0.716958
-0.630222
-0.800013
-0.564712
-0.597227
-0.50199
-0.425479
-0.347771
-0.269516
-0.191524
-0.114562
-0.038098
49.5206
49.526
49.5375
49.5556
49.5807
49.6125
49.6531
49.6876
49.7698
49.7512
49.8692
49.8567
49.9256
-0.729624
-0.642563
-0.811791
-0.575199
-0.606624
-0.510078
-0.432273
-0.353275
-0.273751
-0.194522
-0.116348
-0.0386891
49.515
49.5202
49.5313
49.5487
49.5731
49.6041
49.6439
49.6786
49.7584
49.7426
49.8576
49.8492
49.9189
-0.743109
-0.655655
-0.824269
-0.586323
-0.61659
-0.518657
-0.439482
-0.359115
-0.278246
-0.197702
-0.118242
-0.0393163
49.5094
49.5143
49.5249
49.5417
49.5652
49.5953
49.6341
49.669
49.7461
49.7331
49.8451
49.8412
49.9113
-0.757206
-0.669296
-0.837259
-0.597918
-0.626978
-0.527602
-0.446999
-0.365205
-0.282934
-0.201019
-0.120218
-0.0399705
49.5039
49.5085
49.5185
49.5345
49.5571
49.5863
49.6239
49.6588
49.7332
49.7226
49.8317
49.8327
49.9031
-0.771694
-0.683275
-0.850562
-0.609805
-0.637629
-0.536775
-0.45471
-0.371453
-0.287743
-0.204422
-0.122246
-0.0406418
49.4984
49.5027
49.5121
49.5273
49.549
49.577
49.6135
49.6482
49.7199
49.7116
49.818
49.8239
49.8947
-0.786347
-0.697368
-0.863968
-0.621796
-0.648377
-0.546034
-0.462495
-0.377762
-0.292599
-0.207858
-0.124293
-0.0413198
49.4932
49.4971
49.5059
49.5203
49.5409
49.5678
49.6031
49.6375
49.7064
49.7002
49.8044
49.8149
49.8864
-0.800929
-0.711349
-0.87726
-0.633699
-0.659048
-0.555229
-0.470229
-0.38403
-0.297425
-0.211272
-0.126328
-0.0419935
49.4882
49.4918
49.5
49.5135
49.533
49.5588
49.5929
49.6269
49.6931
49.6888
49.7914
49.8059
49.8786
-0.8152
-0.72499
-0.890219
-0.645319
-0.669467
-0.56421
-0.477784
-0.390155
-0.302139
-0.214609
-0.128316
-0.0426519
49.4836
49.4869
49.4944
49.507
49.5255
49.5502
49.5829
49.6165
49.6802
49.6778
49.7792
49.7976
49.8717
-0.828927
-0.738068
-0.902628
-0.656462
-0.679458
-0.572824
-0.485032
-0.396032
-0.306665
-0.217811
-0.130224
-0.0432839
49.4795
49.4824
49.4892
49.501
49.5185
49.542
49.5736
49.6066
49.6681
49.6674
49.7682
49.7902
49.8659
-0.841883
-0.750356
-0.914271
-0.666937
-0.688848
-0.580925
-0.491851
-0.401561
-0.310922
-0.220824
-0.13202
-0.0438786
49.476
49.4785
49.4846
49.4956
49.512
49.5345
49.5649
49.5974
49.657
49.6579
49.7586
49.7837
49.8613
-0.853853
-0.761673
-0.924953
-0.676569
-0.697474
-0.58837
-0.498118
-0.406644
-0.314836
-0.223595
-0.133671
-0.0444255
49.4731
49.4752
49.4806
49.4908
49.5063
49.5278
49.5572
49.5892
49.647
49.6494
49.7504
49.7781
49.8575
-0.864636
-0.771793
-0.934471
-0.68518
-0.705179
-0.595027
-0.503723
-0.411191
-0.318338
-0.226073
-0.135148
-0.0449148
49.4711
49.4725
49.4773
49.4867
49.5014
49.522
49.5505
49.582
49.6385
49.642
49.7433
49.7732
49.8543
-0.874061
-0.780616
-0.94268
-0.692642
-0.711834
-0.600778
-0.508565
-0.415118
-0.321363
-0.228214
-0.136424
-0.0453374
49.4699
49.4706
49.4747
49.4834
49.4974
49.5173
49.545
49.5761
49.6314
49.636
49.7374
49.7688
49.8513
-0.881978
-0.787894
-0.949402
-0.698787
-0.717302
-0.60551
-0.512553
-0.418354
-0.323855
-0.229978
-0.137475
-0.0456857
49.47
49.4695
49.4727
49.4809
49.4944
49.5137
49.5408
49.5715
49.6259
49.6313
49.7328
49.7648
49.8483
-0.888267
-0.793698
-0.954553
-0.703558
-0.721509
-0.609148
-0.515615
-0.420838
-0.325769
-0.231333
-0.138283
-0.045953
49.4697
49.4687
49.4714
49.4793
49.4924
49.5113
49.538
49.5684
49.6222
49.628
49.7293
49.7616
49.8454
-0.892831
-0.797547
-0.958007
-0.706793
-0.724357
-0.611605
-0.517691
-0.422523
-0.327067
-0.232252
-0.138831
-0.0461341
49.4756
49.4693
49.471
49.4786
49.4915
49.5101
49.5366
49.567
49.6202
49.6267
49.7281
49.7584
49.8431
-0.895596
-0.800252
-0.95969
-0.708555
-0.725822
-0.61284
-0.518751
-0.423382
-0.327727
-0.23272
-0.139109
-0.0462255
49.5541
49.5528
49.5633
49.5828
49.6101
49.6443
49.6874
49.7176
49.8115
49.77
49.9184
49.8777
49.9387
-0.680196
-0.591357
-0.758542
-0.528432
-0.560672
-0.470668
-0.397652
-0.324112
-0.250498
-0.177536
-0.105927
-0.0351204
49.5476
49.5509
49.5623
49.5819
49.6092
49.6434
49.6864
49.7169
49.8103
49.7717
49.9113
49.8763
49.939
-0.680872
-0.592294
-0.760304
-0.529722
-0.561958
-0.471796
-0.398579
-0.324862
-0.251074
-0.177943
-0.106169
-0.0352007
49.5446
49.5487
49.5605
49.5801
49.6073
49.6413
49.6843
49.7151
49.8077
49.7715
49.9073
49.8746
49.9389
-0.683471
-0.595706
-0.763681
-0.53263
-0.564581
-0.474046
-0.400455
-0.326377
-0.252237
-0.178764
-0.106657
-0.0353622
49.5405
49.5456
49.5577
49.5773
49.6044
49.6382
49.681
49.7123
49.8036
49.7698
49.9022
49.8725
49.9378
-0.688128
-0.600471
-0.768675
-0.536908
-0.568483
-0.477388
-0.403253
-0.328636
-0.253973
-0.179989
-0.107386
-0.0356033
49.5363
49.5419
49.5542
49.5737
49.6005
49.6341
49.6765
49.7083
49.7981
49.7669
49.8961
49.8694
49.9355
-0.694645
-0.607265
-0.775241
-0.542651
-0.573638
-0.481799
-0.406943
-0.331616
-0.25626
-0.181605
-0.108347
-0.0359211
49.5318
49.5377
49.55
49.5692
49.5958
49.629
49.671
49.7031
49.7913
49.7626
49.8886
49.8651
49.9319
-0.7029
-0.615497
-0.783273
-0.549696
-0.579962
-0.487216
-0.411479