/*--------------------------------*- C++ -*----------------------------------*\
| =========                 |                                                 |
| \\      /  F ield         | OpenFOAM: The Open Source CFD Toolbox           |
|  \\    /   O peration     | Version:  2306                                  |
|   \\  /    A nd           | Website:  www.openfoam.com                      |
|    \\/     M anipulation  |                                                 |
\*---------------------------------------------------------------------------*/
FoamFile
{
    version     2.0;
    format      ascii;
    arch        "LSB;label=32;scalar=64";
    class       volScalarField;
    location    "0.5";
    object      p;
}
// * * * * * * * * * * * * * * * * * * * * * * * * * * * * * * * * * * * * * //

dimensions      [0 2 -2 0 0 0 0];

internalField   nonuniform List<scalar> 
288632
(
35.9174
35.9106
35.9196
35.9388
35.966
35.9997
36.038
36.078
36.123
36.0168
36.7586
35.8634
36.1935
0.564896
0.812675
0.0735804
0.181218
0.166543
0.149645
0.130472
0.109257
0.0863758
0.0622455
0.0369116
0.0120689
35.9123
35.9091
35.9187
35.9381
35.9654
35.9992
36.0376
36.0777
36.1227
36.0173
36.7562
35.8614
36.1939
0.564648
0.814931
0.0729618
0.181117
0.166245
0.149341
0.130203
0.109034
0.0862008
0.0621203
0.0368354
0.0120425
35.9085
35.9068
35.917
35.9366
35.964
35.998
36.0367
36.077
36.1222
36.0196
36.7532
35.8598
36.1929
0.564716
0.81255
0.0717803
0.180177
0.165513
0.148707
0.129662
0.108588
0.0858532
0.0618718
0.036686
0.0119924
35.9047
35.9038
35.9145
35.9343
35.962
35.9962
36.0352
36.0759
36.1213
36.0231
36.7481
35.8582
36.1913
0.565002
0.812675
0.0706811
0.179086
0.164458
0.147769
0.128858
0.107926
0.0853372
0.0615033
0.036465
0.0119186
35.9007
35.9003
35.9113
35.9314
35.9593
35.9938
36.0332
36.0744
36.1201
36.0277
36.7413
35.856
36.189
0.563696
0.810862
0.0690416
0.177552
0.163059
0.146533
0.1278
0.107056
0.0846596
0.0610195
0.0361752
0.0118222
35.8964
35.8963
35.9076
35.9279
35.956
35.9909
36.0308
36.0727
36.1188
36.0334
36.7328
35.8532
36.1859
0.561721
0.808827
0.0670877
0.175644
0.161335
0.145014
0.126502
0.105989
0.0838291
0.0604268
0.0358204
0.0117042
35.8918
35.8918
35.9033
35.9237
35.9521
35.9874
36.028
36.0707
36.1175
36.0403
36.7225
35.8503
36.1824
0.559271
0.806324
0.0648176
0.173391
0.159308
0.143231
0.124981
0.10474
0.0828567
0.0597331
0.0354052
0.0115662
35.8869
35.887
35.8986
35.9191
35.9478
35.9836
36.0249
36.0687
36.1163
36.0484
36.7106
35.8473
36.1786
0.556387
0.803411
0.0622523
0.170824
0.157004
0.141208
0.123257
0.103325
0.0817557
0.0589479
0.0349353
0.0114101
35.8817
35.8819
35.8935
35.9141
35.943
35.9793
36.0216
36.0667
36.1155
36.0578
36.6972
35.8444
36.1748
0.553128
0.800139
0.0594155
0.16798
0.154454
0.138973
0.121353
0.101763
0.0805413
0.058082
0.0344173
0.011238
35.8764
35.8765
35.8881
35.9088
35.9379
35.9747
36.0181
36.0648
36.1153
36.0685
36.6826
35.8421
36.1713
0.549548
0.796565
0.0563421
0.1649
0.151696
0.136556
0.119296
0.100077
0.0792307
0.0571477
0.0338584
0.0110525
35.8709
35.8709
35.8825
35.9032
35.9325
35.9699
36.0144
36.0631
36.1158
36.0805
36.6671
35.8405
36.1687
0.545703
0.792743
0.0530671
0.161628
0.148768
0.133993
0.117115
0.0982904
0.0778427
0.0561586
0.0332668
0.0108561
35.8653
35.8653
35.8767
35.8974
35.9269
35.965
36.0108
36.0616
36.117
36.0939
36.6512
35.84
36.1673
0.54166
0.788739
0.0496373
0.158214
0.145714
0.131321
0.114844
0.0964303
0.0763981
0.0551293
0.0326512
0.0106517
35.8598
35.8597
35.8709
35.8915
35.9212
35.96
36.0073
36.0605
36.1192
36.1084
36.6354
35.8411
36.1677
0.537475
0.784619
0.0461042
0.154711
0.14258
0.128581
0.112516
0.0945248
0.0749186
0.0540756
0.0320211
0.0104425
35.8544
35.8541
35.8652
35.8857
35.9155
35.955
36.0038
36.0598
36.1223
36.1241
36.6205
35.8441
36.1702
0.533225
0.780445
0.0425183
0.151171
0.139416
0.125815
0.110168
0.0926034
0.0734275
0.0530139
0.0313863
0.0102317
35.8492
35.8488
35.8596
35.88
35.9099
35.9501
36.0005
36.0595
36.1263
36.1407
36.6069
35.8494
36.1754
0.528944
0.776277
0.0389404
0.14765
0.13627
0.123068
0.107836
0.0906967
0.0719483
0.051961
0.0307568
0.0100226
35.8442
35.8437
35.8543
35.8745
35.9045
35.9453
35.9974
36.0596
36.1312
36.1581
36.5953
35.8573
36.1836
0.524741
0.772185
0.0354307
0.144207
0.133195
0.120383
0.105559
0.0888356
0.0705051
0.050934
0.0301429
0.00981876
35.8397
35.839
35.8493
35.8693
35.8994
35.9408
35.9946
36.06
36.1366
36.1758
36.5861
35.8677
36.1949
0.520643
0.768231
0.0320513
0.140897
0.130241
0.117807
0.103375
0.0870513
0.0691218
0.0499499
0.0295548
0.00962352
35.8356
35.8347
35.8447
35.8644
35.8946
35.9366
35.992
36.0607
36.1424
36.1935
36.5794
35.8805
36.209
0.516764
0.764472
0.0288644
0.137776
0.127459
0.115381
0.101321
0.0853741
0.067822
0.0490253
0.0290023
0.00944019
35.8321
35.831
35.8406
35.8601
35.8902
35.9328
35.9898
36.0615
36.1485
36.2108
36.5752
35.8953
36.2256
0.513131
0.760963
0.0259324
0.134898
0.124896
0.11315
0.0994327
0.0838328
0.0666279
0.0481761
0.0284951
0.00927194
35.8293
35.8278
35.8371
35.8563
35.8864
35.9295
35.9879
36.0626
36.1544
36.227
36.5732
35.9114
36.2438
0.509804
0.75775
0.0233161
0.132312
0.122597
0.111152
0.0977431
0.0824546
0.0655606
0.0474174
0.028042
0.00912171
35.8273
35.8253
35.8342
35.853
35.8831
35.9267
35.9863
36.0637
36.1599
36.2418
36.573
35.928
36.2627
0.50683
0.75486
0.0210729
0.130064
0.120604
0.109423
0.0962829
0.0812642
0.0646391
0.0467626
0.027651
0.00899218
35.8261
35.8236
35.8319
35.8504
35.8805
35.9244
35.9851
36.0647
36.1648
36.2546
36.5739
35.9441
36.2812
0.504367
0.752947
0.0192935
0.128191
0.118954
0.107996
0.0950787
0.0802832
0.06388
0.0462234
0.0273293
0.00888569
35.826
35.8226
35.8303
35.8485
35.8785
35.9227
35.9842
36.0656
36.1688
36.2649
36.5754
35.9589
36.2979
0.50331
0.749317
0.0176962
0.126653
0.117675
0.106897
0.0941532
0.0795296
0.0632973
0.0458096
0.0270827
0.00880422
35.827
35.8222
35.8293
35.8473
35.8772
35.9216
35.9837
36.0664
36.1717
36.2724
36.5765
35.9702
36.3116
0.502237
0.750097
0.0170682
0.125868
0.116845
0.106154
0.093524
0.0790176
0.0629016
0.0455288
0.0269158
0.0087494
35.8309
35.8225
35.8289
35.8468
35.8766
35.9211
35.9836
36.0669
36.1735
36.2766
36.5781
35.9754
36.3213
0.500038
0.74636
0.0167912
0.125041
0.11633
0.105759
0.0932014
0.0787566
0.0627002
0.045386
0.0268317
0.00872256
35.9115
35.9081
35.9177
35.937
35.9642
35.9979
36.0362
36.0761
36.1209
36.0151
36.7544
35.8599
36.1926
0.564614
0.812756
0.0743336
0.180613
0.166153
0.149425
0.130381
0.109259
0.0864382
0.0623359
0.036995
0.0121081
35.9063
35.9066
35.9168
35.9363
35.9636
35.9974
36.0358
36.0758
36.1207
36.0162
36.7503
35.8579
36.1927
0.564439
0.814891
0.073704
0.180493
0.165843
0.149111
0.130106
0.109032
0.0862607
0.0622089
0.0369178
0.0120815
35.9026
35.9043
35.9151
35.9348
35.9622
35.9962
36.0348
36.0751
36.1201
36.0187
36.7466
35.8563
36.1918
0.564525
0.812506
0.072516
0.179548
0.165103
0.148469
0.129557
0.10858
0.0859081
0.0619571
0.0367665
0.0120307
35.8988
35.9013
35.9126
35.9325
35.9601
35.9943
36.0333
36.0739
36.1191
36.0222
36.7412
35.8544
36.1902
0.564827
0.812552
0.0713778
0.178426
0.164028
0.147515
0.12874
0.107908
0.0853849
0.0615836
0.0365426
0.011956
35.8947
35.8978
35.9094
35.9295
35.9574
35.9919
36.0312
36.0723
36.1178
36.0267
36.7341
35.852
36.1878
0.563464
0.810727
0.0697136
0.176866
0.162605
0.146258
0.127666
0.107025
0.0846975
0.0610931
0.0362489
0.0118583
35.8904
35.8937
35.9056
35.9259
35.954
35.9888
36.0287
36.0705
36.1164
36.0323
36.7252
35.849
36.1846
0.561471
0.808641
0.0677269
0.174923
0.160851
0.144714
0.126348
0.105943
0.0838551
0.0604922
0.0358893
0.0117388
35.8857
35.8892
35.9013
35.9218
35.9501
35.9853
36.0257
36.0684
36.1149
36.039
36.7145
35.8457
36.181
0.55898
0.80608
0.0654154
0.172628
0.158789
0.142902
0.124803
0.104675
0.0828686
0.0597888
0.0354685
0.011599
35.8808
35.8844
35.8965
35.9171
35.9456
35.9813
36.0225
36.0661
36.1136
36.047
36.702
35.8423
36.177
0.556051
0.803101
0.0628017
0.170014
0.156444
0.140845
0.123051
0.103238
0.0817513
0.0589924
0.0349922
0.0114408
35.8756
35.8792
35.8913
35.912
35.9407
35.9768
36.0189
36.0639
36.1126
36.0562
36.6879
35.8389
36.173
0.55274
0.799757
0.0599103
0.167117
0.15385
0.138572
0.121116
0.101652
0.0805188
0.0581139
0.0344668
0.0112664
35.8702
35.8738
35.8859
35.9065
35.9355
35.9721
36.0152
36.0617
36.112
36.0666
36.6724
35.8359
36.1693
0.549104
0.796104
0.0567764
0.16398
0.151042
0.136114
0.119026
0.0999388
0.0791882
0.0571659
0.0338999
0.0110783
35.8647
35.8682
35.8802
35.9008
35.9299
35.9671
36.0113
36.0597
36.1121
36.0783
36.6558
35.8336
36.1663
0.545201
0.792197
0.0534355
0.160647
0.148061
0.133506
0.116809
0.0981238
0.0777789
0.056162
0.0332997
0.0108792
35.8591
35.8625
35.8744
35.8949
35.9242
35.9619
36.0074
36.0579
36.113
36.0912
36.6388
35.8323
36.1644
0.541093
0.788102
0.0499357
0.157167
0.144951
0.130787
0.114499
0.0962336
0.0763116
0.0551171
0.0326751
0.0106719
35.8535
35.8568
35.8685
35.889
35.9183
35.9567
36.0035
36.0563
36.1147
36.1052
36.6218
35.8325
36.1644
0.536842
0.783889
0.04633
0.153596
0.141759
0.127998
0.112132
0.0942966
0.0748086
0.0540472
0.0320356
0.0104596
35.8481
35.8512
35.8627
35.883
35.9125
35.9514
35.9996
36.0551
36.1172
36.1203
36.6055
35.8346
36.1664
0.532509
0.779618
0.0426708
0.149986
0.138535
0.125182
0.109742
0.0923429
0.0732933
0.0529688
0.0313911
0.0102456
35.8428
35.8458
35.8571
35.8772
35.9067
35.9462
35.9959
36.0543
36.1206
36.1362
36.5906
35.839
36.1711
0.528168
0.775357
0.0390174
0.146396
0.13533
0.122385
0.107369
0.0904037
0.0717898
0.0518991
0.0307518
0.0100334
35.8378
35.8407
35.8517
35.8715
35.9011
35.9411
35.9924
36.0537
36.1247
36.1527
36.5776
35.8459
36.1788
0.523878
0.771172
0.0354321
0.142883
0.132195
0.11965
0.105052
0.0885106
0.0703225
0.0508555
0.0301282
0.00982645
35.8333
35.8359
35.8466
35.8662
35.8957
35.9363
35.9891
36.0535
36.1294
36.1694
36.567
35.8553
36.1895
0.519737
0.76713
0.0319783
0.139506
0.129183
0.117025
0.102828
0.0866951
0.0689159
0.0498552
0.0295306
0.00962818
35.8291
35.8316
35.8419
35.8613
35.8907
35.9319
35.9861
36.0536
36.1344
36.1861
36.5591
35.8672
36.2031
0.515781
0.763289
0.0287201
0.136322
0.126346
0.114554
0.100736
0.0849881
0.0675937
0.0489152
0.0289692
0.00944197
35.8256
35.8278
35.8378
35.8568
35.8862
35.9278
35.9835
36.0539
36.1397
36.2022
36.5538
35.8812
36.2192
0.512094
0.759706
0.0257216
0.133385
0.123732
0.112279
0.0988128
0.0834192
0.0663789
0.0480518
0.0284537
0.00927104
35.8228
35.8246
35.8342
35.8529
35.8822
35.9242
35.9812
36.0543
36.1448
36.2174
36.5508
35.8967
36.2371
0.508702
0.756428
0.0230451
0.130746
0.121387
0.110243
0.0970915
0.0820161
0.065293
0.0472801
0.027993
0.00911838
35.8207
35.8221
35.8312
35.8496
35.8788
35.9211
35.9792
36.0549
36.1496
36.2312
36.5496
35.9128
36.2557
0.505695
0.753485
0.0207488
0.128451
0.119354
0.10848
0.0956037
0.0808039
0.0643552
0.0466141
0.0275955
0.00898672
35.8195
35.8203
35.8289
35.8469
35.876
35.9186
35.9777
36.0555
36.1539
36.2431
36.5497
35.9288
36.274
0.503181
0.751515
0.0189191
0.126539
0.117672
0.107025
0.0943767
0.0798049
0.0635827
0.0460656
0.0272684
0.00887846
35.8193
35.8192
35.8272
35.8449
35.8739
35.9168
35.9766
36.056
36.1574
36.2528
36.5505
35.9432
36.2907
0.502102
0.747894
0.0173044
0.124981
0.116369
0.105905
0.0934336
0.0790374
0.0629895
0.0456447
0.0270176
0.00879562
35.8204
35.8189
35.8262
35.8436
35.8726
35.9156
35.976
36.0565
36.1599
36.2598
36.5508
35.9543
36.3044
0.500969
0.748618
0.0166463
0.124167
0.115515
0.105146
0.0927924
0.078516
0.0625868
0.045359
0.0268478
0.00873987
35.8243
35.8191
35.8258
35.8431
35.872
35.9151
35.9757
36.057
36.1614
36.2642
36.5505
35.961
36.3141
0.498804
0.744998
0.0163615
0.123341
0.114999
0.104748
0.0924643
0.0782504
0.0623819
0.0452138
0.0267625
0.00871259
35.9059
35.9039
35.914
35.9334
35.9605
35.9941
36.0323
36.0721
36.1168
36.013
36.7477
35.8547
36.1881
0.563704
0.809519
0.0761774
0.179519
0.165598
0.149201
0.130389
0.109423
0.0866887
0.062608
0.0372198
0.0122082
35.9007
35.9024
35.9131
35.9326
35.9599
35.9936
36.0319
36.0718
36.1165
36.0143
36.743
35.8527
36.1884
0.563553
0.811659
0.07555
0.179378
0.165274
0.148875
0.130106
0.109189
0.0865063
0.0624777
0.0371407
0.012181
35.8969
35.9001
35.9113
35.9311
35.9585
35.9923
36.0308
36.071
36.1158
36.0168
36.7387
35.8508
36.1875
0.563616
0.809264
0.0743449
0.178413
0.164511
0.148214
0.129541
0.108724
0.086144
0.0622192
0.0369856
0.012129
35.8931
35.897
35.9088
35.9287
35.9563
35.9904
36.0291
36.0697
36.1147
36.0202
36.7326
35.8486
36.1858
0.563899
0.80922
0.0731495
0.177241
0.163399
0.147231
0.1287
0.108033
0.0856062
0.0618357
0.0367559
0.0120525
35.889
35.8934
35.9055
35.9257
35.9534
35.9877
36.0269
36.0679
36.1132
36.0246
36.7247
35.8459
36.1831
0.562478
0.807356
0.071435
0.175625
0.161927
0.145933
0.127593
0.107124
0.0848997
0.061332
0.0364547
0.0119524
35.8846
35.8893
35.9016
35.922
35.9499
35.9845
36.0242
36.0658
36.1115
36.03
36.7149
35.8424
36.1795
0.560405
0.805166
0.0693787
0.173612
0.160114
0.144339
0.126234
0.10601
0.0840334
0.0607148
0.0360856
0.0118298
35.8799
35.8848
35.8972
35.9177
35.9458
35.9807
36.021
36.0634
36.1096
36.0365
36.7029
35.8384
36.1752
0.557811
0.802492
0.0669852
0.171235
0.157981
0.142469
0.124641
0.104704
0.0830188
0.0599919
0.0356535
0.0116864
35.875
35.8799
35.8924
35.9129
35.9411
35.9765
36.0174
36.0607
36.1079
36.0441
36.6889
35.8342
36.1704
0.554774
0.799385
0.0642746
0.168527
0.155556
0.140345
0.122835
0.103224
0.0818692
0.0591732
0.0351643
0.0115241
35.8697
35.8746
35.8871
35.9076
35.936
35.9717
36.0134
36.058
36.1063
36.0529
36.6729
35.8298
36.1655
0.551344
0.795899
0.0612743
0.165525
0.152872
0.137996
0.120838
0.10159
0.0806005
0.0582698
0.0346245
0.0113451
35.8642
35.8691
35.8815
35.902
35.9305
35.9666
36.0092
36.0552
36.1051
36.0628
36.6551
35.8257
36.1606
0.547575
0.792091
0.0580189
0.162272
0.149966
0.135455
0.11868
0.0998239
0.0792302
0.0572943
0.0340417
0.0111519
35.8586
35.8634
35.8757
35.896
35.9246
35.9612
36.0048
36.0525
36.1044
36.0738
36.6359
35.822
36.1562
0.54353
0.788023
0.0545488
0.158816
0.146879
0.132759
0.116391
0.0979518
0.0777781
0.0562609
0.0334244
0.0109473
35.8529
35.8576
35.8697
35.8899
35.9186
35.9556
36.0002
36.0499
36.1044
36.0858
36.6159
35.8193
36.1528
0.539264
0.78376
0.050911
0.155206
0.143657
0.129946
0.114005
0.0960011
0.0762655
0.0551849
0.0327817
0.0107341
35.8473
35.8518
35.8637
35.8837
35.9124
35.9498
35.9956
36.0475
36.105
36.0987
36.5955
35.8178
36.1509
0.534848
0.779367
0.0471584
0.151498
0.140348
0.127059
0.111557
0.0940011
0.0747153
0.0540824
0.0321232
0.0105158
35.8417
35.8461
35.8577
35.8775
35.9061
35.944
35.9909
36.0453
36.1063
36.1124
36.5757
35.8181
36.1509
0.530351
0.774915
0.0433479
0.147749
0.137004
0.124142
0.109086
0.0919829
0.0731517
0.0529707
0.0314593
0.0102956
35.8364
35.8406
35.8519
35.8715
35.9
35.9382
35.9864
36.0432
36.1083
36.1266
36.5571
35.8206
36.1535
0.525844
0.770472
0.039541
0.144019
0.133678
0.121243
0.10663
0.0899786
0.0715994
0.0518674
0.0308005
0.0100771
35.8313
35.8353
35.8463
35.8656
35.894
35.9325
35.982
36.0415
36.1108
36.1412
36.5405
35.8256
36.159
0.521395
0.766109
0.0358023
0.140367
0.130423
0.118408
0.104231
0.088021
0.0700839
0.0507904
0.0301575
0.00986385
35.8266
35.8304
35.8411
35.86
35.8882
35.9271
35.9778
36.04
36.1139
36.1559
36.5264
35.8332
36.1675
0.51709
0.761895
0.0321983
0.136856
0.127296
0.115685
0.101927
0.0861428
0.0686303
0.0497577
0.029541
0.00965951
35.8225
35.826
35.8363
35.8548
35.8829
35.9221
35.9739
36.0388
36.1172
36.1703
36.5152
35.8436
36.179
0.51298
0.757891
0.0287959
0.133544
0.124347
0.113121
0.0997596
0.084376
0.0672634
0.0487868
0.0289616
0.0094675
35.8189
35.8221
35.832
35.8501
35.878
35.9174
35.9704
36.0378
36.1207
36.1841
36.5069
35.8562
36.1931
0.509135
0.754157
0.0256621
0.130488
0.12163
0.11076
0.0977653
0.0827515
0.066007
0.0478947
0.0284294
0.00929116
35.8159
35.8188
35.8283
35.846
35.8736
35.9133
35.9673
36.037
36.1242
36.197
36.5012
35.8706
36.2091
0.505624
0.750744
0.0228622
0.127742
0.119193
0.108645
0.0959802
0.0812981
0.0648834
0.0470972
0.0279536
0.0091336
35.8138
35.8163
35.8252
35.8425
35.8699
35.9098
35.9646
36.0365
36.1274
36.2085
36.4976
35.8859
36.2262
0.502494
0.747688
0.0204577
0.125353
0.117079
0.106814
0.0944367
0.0800422
0.0639129
0.0464085
0.027543
0.00899765
35.8126
35.8144
35.8228
35.8397
35.8669
35.9069
35.9625
36.0361
36.1303
36.2184
36.4956
35.9014
36.2431
0.499876
0.745581
0.0185276
0.123362
0.11533
0.105303
0.0931636
0.0790068
0.0631132
0.0458413
0.0272049
0.00888581
35.8124
35.8133
35.821
35.8376
35.8647
35.9047
35.9609
36.036
36.1327
36.2265
36.4948
35.9154
36.2587
0.498734
0.741905
0.0168578
0.12175
0.113976
0.104139
0.0921847
0.0782113
0.0624991
0.0454059
0.0269456
0.00880021
35.8134
35.8129
35.82
35.8362
35.8632
35.9033
35.9599
36.0359
36.1344
36.2324
36.4938
35.9263
36.2718
0.497546
0.742558
0.0161423
0.12089
0.113085
0.103349
0.0915191
0.0776708
0.062082
0.0451104
0.0267701
0.00874259
35.8173
35.8132
35.8195
35.8356
35.8625
35.9027
35.9595
36.0361
36.1356
36.2364
36.4925
35.9323
36.2811
0.495338
0.738877
0.01582
0.120048
0.112553
0.102938
0.0911788
0.0773955
0.0618699
0.0449602
0.0266817
0.00871435
35.8993
35.8981
35.9085
35.9279
35.955
35.9884
36.0265
36.0661
36.1105
36.0099
36.7371
35.8474
36.181
0.561381
0.804973
0.0792414
0.178021
0.164903
0.148986
0.130503
0.10975
0.087128
0.0630622
0.0375864
0.0123692
35.8941
35.8966
35.9076
35.9271
35.9543
35.9878
36.026
36.0658
36.1102
36.0112
36.7321
35.8451
36.1813
0.561196
0.807081
0.0786025
0.177851
0.164559
0.148643
0.130207
0.109507
0.0869383
0.0629269
0.0375044
0.0123411
35.8903
35.8942
35.9058
35.9255
35.9528
35.9865
36.0248
36.0648
36.1093
36.0136
36.7272
35.843
36.1803
0.561259
0.804646
0.0773588
0.176847
0.163759
0.147952
0.129617
0.109022
0.0865615
0.0626585
0.0373435
0.0122872
35.8864
35.8911
35.9032
35.9231
35.9505
35.9844
36.0229
36.0633
36.108
36.0169
36.7203
35.8404
36.1782
0.561509
0.804476
0.0760889
0.17561
0.162594
0.146925
0.128739
0.108302
0.0860019
0.06226
0.0371053
0.012208
35.8823
35.8875
35.8998
35.9199
35.9475
35.9815
36.0205
36.0612
36.1062
36.021
36.7113
35.8371
36.175
0.559948
0.802533
0.074294
0.173907
0.161049
0.145565
0.127583
0.107355
0.0852665
0.0617365
0.0367925
0.0121042
35.8778
35.8833
35.8958
35.9161
35.9437
35.978
36.0174
36.0587
36.104
36.0261
36.7
35.8328
36.1706
0.55775
0.800195
0.0721342
0.171788
0.159146
0.143897
0.126164
0.106193
0.0843646
0.0610947
0.0364093
0.0119771
35.8731
35.8786
35.8913
35.9116
35.9394
35.9739
36.0138
36.0558
36.1016
36.0323
36.6861
35.8278
36.1653
0.555017
0.797348
0.069615
0.169287
0.156907
0.141937
0.124499
0.10483
0.0833076
0.0603427
0.0359603
0.0118283
35.868
35.8736
35.8863
35.9066
35.9344
35.9692
36.0096
36.0526
36.0991
36.0394
36.6697
35.8223
36.1592
0.551802
0.794046
0.0667577
0.166437
0.154361
0.139712
0.122609
0.103285
0.0821094
0.0594904
0.0354517
0.0116598
35.8626
35.8682
35.8808
35.901
35.9289
35.964
36.0051
36.0491
36.0967
36.0475
36.6507
35.8164
36.1526
0.548178
0.790344
0.0635915
0.163276
0.151541
0.137249
0.12052
0.101578
0.0807861
0.0585494
0.0348901
0.0114739
35.857
35.8625
35.875
35.8951
35.923
35.9584
36.0001
36.0455
36.0945
36.0565
36.6294
35.8104
36.1456
0.544189
0.786301
0.0601524
0.15985
0.148485
0.134584
0.118261
0.0997317
0.079356
0.0575328
0.0342835
0.011273
35.8513
35.8567
35.869
35.8889
35.9167
35.9523
35.9948
36.0417
36.0926
36.0664
36.6059
35.8046
36.1387
0.539919
0.781981
0.0564828
0.156206
0.145238
0.131753
0.115862
0.0977735
0.0778393
0.0564549
0.0336404
0.0110601
35.8455
35.8507
35.8628
35.8825
35.9102
35.946
35.9893
36.0378
36.0911
36.0769
36.581
35.7993
36.1323
0.535404
0.777452
0.0526322
0.152398
0.141846
0.128797
0.11336
0.0957314
0.0762583
0.0553317
0.0329703
0.0108382
35.8397
35.8448
35.8566
35.876
35.9035
35.9394
35.9836
36.0339
36.09
36.088
36.5552
35.795
36.1269
0.530732
0.772786
0.0486561
0.148484
0.13836
0.125762
0.110791
0.0936361
0.0746369
0.0541802
0.0322834
0.0106106
35.834
35.8389
35.8504
35.8694
35.8967
35.9328
35.9777
36.0301
36.0893
36.0994
36.5296
35.7922
36.1232
0.525974
0.768056
0.0446147
0.144523
0.134834
0.122693
0.108195
0.0915201
0.0730001
0.0530181
0.0315902
0.010381
35.8285
35.8332
35.8443
35.8629
35.8899
35.9261
35.9719
36.0263
36.089
36.1109
36.5051
35.7913
36.1218
0.521202
0.763336
0.0405732
0.14058
0.131324
0.11964
0.105614
0.0894172
0.0713741
0.0518639
0.0309018
0.010153
35.8234
35.8278
35.8385
35.8567
35.8834
35.9196
35.9662
36.0226
36.089
36.1223
36.4826
35.793
36.1229
0.516488
0.7587
0.0366
0.136717
0.127888
0.116652
0.10309
0.0873617
0.0697853
0.0507364
0.0302295
0.00993039
35.8186
35.8228
35.833
35.8507
35.877
35.9133
35.9606
36.0191
36.0893
36.1334
36.4628
35.7974
36.1269
0.51193
0.754221
0.0327659
0.133
0.124582
0.11378
0.100665
0.0853882
0.0682605
0.0496546
0.0295845
0.00971684
35.8143
35.8182
35.828
35.8452
35.8711
35.9073
35.9553
36.0159
36.0899
36.1439
36.4463
35.8047
36.1338
0.507565
0.749967
0.0291424
0.129493
0.121466
0.111074
0.098382
0.0835306
0.0668257
0.0486369
0.0289778
0.00951605
35.8106
35.8142
35.8235
35.8402
35.8657
35.9018
35.9505
36.0129
36.0906
36.1537
36.433
35.8146
36.1434
0.503496
0.746002
0.025801
0.126256
0.118592
0.108582
0.0962802
0.0818216
0.0655061
0.0477013
0.0284202
0.00933151
35.8075
35.8108
35.8196
35.8358
35.8609
35.8969
35.9461
36.0103
36.0913
36.1625
36.4228
35.8269
36.1551
0.499776
0.742383
0.0228119
0.123346
0.116012
0.106347
0.0943979
0.0802918
0.0643255
0.0468644
0.0279216
0.00916651
35.8053
35.8081
35.8163
35.832
35.8567
35.8927
35.9424
36.008
36.0921
36.1702
36.4152
35.8406
36.1682
0.496451
0.73915
0.020241
0.120815
0.113775
0.104412
0.0927696
0.0789693
0.0633052
0.0461415
0.0274909
0.00902406
35.804
35.8061
35.8138
35.829
35.8534
35.8892
35.9393
36.0062
36.0928
36.1767
36.4099
35.8546
36.1817
0.493678
0.736859
0.0181684
0.118707
0.111924
0.102816
0.0914262
0.0778786
0.0624642
0.0455457
0.0271362
0.00890683
35.8038
35.805
35.812
35.8267
35.8508
35.8866
35.937
36.0049
36.0934
36.1819
36.4063
35.8678
36.1944
0.49243
0.733088
0.0163983
0.117
0.110489
0.101584
0.0903928
0.0770404
0.0618181
0.0450883
0.0268641
0.00881706
35.8047
35.8045
35.8108
35.8252
35.8492
35.8849
35.9355
36.004
36.0938
36.1857
36.4032
35.8782
36.2055
0.49118
0.733652
0.0156079
0.116079
0.109545
0.100748
0.08969
0.0764708
0.0613793
0.0447778
0.0266797
0.00875658
35.8086
35.8047
35.8104
35.8246
35.8484
35.8841
35.9348
36.0038
36.0943
36.1887
36.4011
35.884
36.2133
0.4889
0.72993
0.0152413
0.115209
0.108986
0.100315
0.089331
0.0761807
0.0611561
0.0446199
0.0265869
0.0087269
35.8916
35.8908
35.9014
35.9207
35.9476
35.9809
36.0187
36.0582
36.1021
36.0057
36.723
35.8374
36.1711
0.558015
0.798784
0.0834129
0.176171
0.164098
0.148796
0.130733
0.110247
0.0877589
0.0636995
0.0380947
0.0125908
35.8863
35.8892
35.9004
35.9199
35.9469
35.9802
36.0181
36.0577
36.1017
36.0069
36.7177
35.835
36.1713
0.557784
0.800862
0.0827573
0.175964
0.163727
0.148433
0.13042
0.10999
0.0875594
0.0635576
0.038009
0.0125615
35.8825
35.8868
35.8986
35.9182
35.9453
35.9787
36.0168
36.0566
36.1007
36.0092
36.7121
35.8325
36.1701
0.557812
0.798366
0.0814583
0.17491
0.162878
0.147701
0.129796
0.109479
0.0871632
0.0632758
0.0378404
0.0125052
35.8786
35.8837
35.8959
35.9157
35.9428
35.9764
36.0147
36.0548
36.099
36.0122
36.7042
35.8294
36.1675
0.557997
0.798031
0.0800938
0.173581
0.16164
0.146612
0.128869
0.10872
0.0865745
0.0628574
0.0375906
0.0124223
35.8744
35.8799
35.8924
35.9124
35.9396
35.9733
36.0119
36.0523
36.0968
36.0161
36.6937
35.8252
36.1634
0.55628
0.795966
0.0781882
0.171759
0.159996
0.145171
0.127647
0.107721
0.0858006
0.0623075
0.0372626
0.0123137
35.8698
35.8756
35.8883
35.9083
35.9356
35.9694
36.0084
36.0493
36.094
36.0208
36.6804
35.8198
36.158
0.553896
0.793426
0.0758876
0.1695
0.157973
0.143403
0.126146
0.106495
0.0848509
0.0616327
0.0368604
0.0121805
35.865
35.8709
35.8836
35.9036
35.9309
35.9649
36.0042
36.0457
36.0909
36.0264
36.6639
35.8134
36.1512
0.55094
0.790345
0.0731972
0.166831
0.155591
0.141324
0.124384
0.105057
0.0837371
0.0608417
0.036389
0.0120246
35.8597
35.8657
35.8783
35.8983
35.9255
35.9597
35.9994
36.0417
36.0875
36.0328
36.6442
35.8061
36.1432
0.54748
0.786778
0.0701409
0.163789
0.152881
0.138962
0.122384
0.103424
0.0824736
0.0599445
0.0358543
0.0118478
35.8543
35.8601
35.8727
35.8924
35.9196
35.9538
35.994
36.0372
36.0839
36.0399
36.6211
35.798
36.1341
0.543584
0.782781
0.0667492
0.160414
0.149877
0.136346
0.12017
0.101619
0.0810771
0.0589532
0.0352636
0.0116525
35.8485
35.8543
35.8666
35.8862
35.9132
35.9474
35.988
36.0323
36.0803
36.0477
36.5947
35.7894
36.1241
0.539306
0.778416
0.0630601
0.156752
0.14662
0.133512
0.117773
0.0996653
0.0795664
0.0578811
0.0346249
0.0114414
35.8426
35.8482
35.8603
35.8796
35.9063
35.9406
35.9816
36.0271
36.0767
36.0558
36.5652
35.7804
36.1133
0.534702
0.773752
0.0591191
0.152854
0.143156
0.130499
0.115226
0.0975908
0.0779629
0.0567435
0.0339472
0.0112174
35.8367
35.8421
35.8539
35.8727
35.8991
35.9333
35.9748
36.0215
36.073
36.0642
36.5333
35.7715
36.1022
0.529848
0.768862
0.0549786
0.148778
0.139533
0.12735
0.112567
0.0954254
0.0762898
0.0555569
0.0332404
0.0109837
35.8307
35.8359
35.8473
35.8657
35.8917
35.9257
35.9676
36.0156
36.0694
36.0724
36.4998
35.7629
36.0912
0.524821
0.763822
0.0506974
0.144584
0.135806
0.124113
0.109834
0.0932015
0.0745722
0.0543391
0.0325151
0.0107438
35.8249
35.8299
35.8408
35.8587
35.8842
35.918
35.9601
36.0095
36.0658
36.0802
36.4659
35.7553
36.0811
0.519699
0.758712
0.0463404
0.140336
0.132033
0.120838
0.10707
0.0909533
0.0728367
0.053109
0.0317824
0.0105015
35.8192
35.8239
35.8345
35.8518
35.8767
35.9102
35.9525
36.0032
36.0621
36.0873
36.4328
35.7494
36.0728
0.514551
0.753611
0.0419778
0.136102
0.128274
0.117575
0.104319
0.0887168
0.0711108
0.0518861
0.0310541
0.0102607
35.8139
35.8183
35.8284
35.845
35.8694
35.9024
35.945
35.9968
36.0584
36.0936
36.4019
35.7457
36.0663
0.50948
0.7486
0.0376834
0.131951
0.12459
0.11438
0.101626
0.0865287
0.069423
0.0506904
0.0303422
0.0100254
35.8089
35.8131
35.8226
35.8386
35.8623
35.8949
35.9375
35.9905
36.0547
36.0988
36.3741
35.7449
36.0622
0.504549
0.743759
0.0335338
0.127954
0.121043
0.111306
0.0990367
0.084426
0.0678016
0.0495422
0.0296586
0.00979938
35.8045
35.8083
35.8173
35.8327
35.8557
35.8878
35.9304
35.9845
36.0512
36.1031
36.35
35.7471
36.0607
0.499852
0.739162
0.0296069
0.12418
0.117696
0.108407
0.0965962
0.082445
0.0662748
0.0484612
0.0290152
0.00958669
35.8006
35.8041
35.8125
35.8272
35.8496
35.8812
35.9238
35.9788
36.0478
36.1065
36.3297
35.7518
36.0619
0.495462
0.734881
0.0259807
0.120695
0.114608
0.105734
0.0943481
0.0806212
0.0648695
0.0474665
0.0284232
0.00939105
35.7975
35.8006
35.8083
35.8224
35.8441
35.8753
35.9178
35.9736
36.0446
36.109
36.313
35.7594
36.0652
0.491447
0.730978
0.0227315
0.117561
0.111835
0.103337
0.0923333
0.0789875
0.0636113
0.0465763
0.0278935
0.009216
35.7952
35.7977
35.8049
35.8183
35.8394
35.8701
35.9126
35.969
36.0417
36.1107
36.2996
35.7682
36.0702
0.487865
0.727501
0.0199313
0.114835
0.109429
0.10126
0.0905894
0.0775743
0.0625234
0.0458068
0.0274357
0.00906477
35.7938
35.7957
35.8022
35.815
35.8356
35.8659
35.9082
35.9651
36.0392
36.1119
36.289
35.7774
36.076
0.484861
0.724969
0.0176659
0.112566
0.107437
0.0995458
0.0891501
0.0764084
0.0616262
0.0451723
0.0270584
0.00894023
35.7934
35.7944
35.8002
35.8125
35.8327
35.8627
35.9049
35.9622
36.0373
36.1126
36.2807
35.7863
36.0822
0.483463
0.721057
0.0157485
0.110734
0.105894
0.0982234
0.0880425
0.075512
0.0609367
0.044685
0.0267688
0.00884482
35.7944
35.7939
35.799
35.8109
35.8308
35.8605
35.9028
35.9603
36.0359
36.1132
36.274
35.7934
36.0879
0.482126
0.721508
0.0148593
0.109726
0.104875
0.0973248
0.0872892
0.0749027
0.0604682
0.044354
0.0265726
0.00878048
35.7982
35.7941
35.7985
35.8102
35.8299
35.8596
35.9018
35.9595
36.0354
36.1142
36.27
35.7941
36.092
0.479744
0.71772
0.0144316
0.108819
0.104279
0.0968601
0.0869045
0.0745924
0.06023
0.0441857
0.0264735
0.00874879
35.8826
35.8821
35.8927
35.9119
35.9385
35.9715
36.0091
36.0483
36.0918
36.0004
36.7054
35.8248
36.1584
0.553638
0.790801
0.0886008
0.174046
0.163223
0.148659
0.131092
0.110919
0.0885844
0.0645209
0.0387449
0.012873
35.8774
35.8805
35.8917
35.911
35.9377
35.9708
36.0084
36.0477
36.0913
36.0015
36.6998
35.8221
36.1585
0.553356
0.79284
0.087923
0.173792
0.162819
0.148269
0.130758
0.110646
0.0883727
0.0643707
0.0386545
0.0128422
35.8736
35.878
35.8898
35.9093
35.936
35.9691
36.0069
36.0464
36.09
36.0036
36.6934
35.8192
36.1568
0.55334
0.790261
0.0865522
0.172675
0.161909
0.147485
0.130093
0.110103
0.087952
0.0640722
0.0384763
0.0127829
35.8695
35.8748
35.887
35.9066
35.9334
35.9665
36.0045
36.0442
36.088
36.0064
36.6841
35.8154
36.1536
0.553441
0.789717
0.0850689
0.171229
0.160577
0.14632
0.129102
0.109294
0.0873269
0.0636288
0.0382122
0.0126955
35.8653
35.8709
35.8834
35.903
35.9299
35.9631
36.0012
36.0413
36.0852
36.0099
36.6717
35.8102
36.1485
0.551516
0.787486
0.0830219
0.16926
0.15881
0.144776
0.127798
0.108231
0.0865046
0.0630456
0.0378651
0.0125807
35.8606
35.8665
35.8791
35.8988
35.9255
35.9588
35.9972
36.0376
36.0817
36.014
36.6559
35.8034
36.1416
0.548896
0.78469
0.0805397
0.166821
0.156634
0.142881
0.126194
0.106924
0.0854947
0.0623296
0.0374391
0.0124401
35.8556
35.8616
35.8742
35.8937
35.9204
35.9537
35.9923
36.0333
36.0776
36.0189
36.6361
35.7952
36.1329
0.545667
0.78131
0.0776303
0.16394
0.154072
0.140651
0.12431
0.10539
0.0843095
0.0614895
0.0369394
0.0122751
35.8503
35.8562
35.8687
35.8881
35.9146
35.9478
35.9866
36.0282
36.073
36.0243
36.6122
35.7856
36.1224
0.541894
0.7774
0.074319
0.160654
0.151154
0.138116
0.122169
0.103647
0.0829638
0.0605359
0.0363721
0.0120879
35.8446
35.8505
35.8628
35.8819
35.9081
35.9412
35.9802
36.0224
36.068
36.0301
36.5837
35.7746
36.11
0.537639
0.773022
0.0706381
0.157006
0.147917
0.135305
0.119797
0.101718
0.0814748
0.059481
0.0357447
0.0118809
35.8387
35.8444
35.8564
35.8752
35.9011
35.9339
35.973
36.016
36.0625
36.036
36.5507
35.7625
36.0957
0.532962
0.768243
0.0666283
0.153044
0.144404
0.132257
0.117226
0.0996281
0.0798624
0.0583391
0.0350656
0.0116569
35.8326