/*--------------------------------*- C++ -*----------------------------------*\
| =========                 |                                                 |
| \\      /  F ield         | OpenFOAM: The Open Source CFD Toolbox           |
|  \\    /   O peration     | Version:  2306                                  |
|   \\  /    A nd           | Website:  www.openfoam.com                      |
|    \\/     M anipulation  |                                                 |
\*---------------------------------------------------------------------------*/
FoamFile
{
    version     2.0;
    format      ascii;
    arch        "LSB;label=32;scalar=64";
    class       volScalarField;
    location    "2.6";
    object      p;
}
// * * * * * * * * * * * * * * * * * * * * * * * * * * * * * * * * * * * * * //

dimensions      [0 2 -2 0 0 0 0];

internalField   nonuniform List<scalar> 
288632
(
51.4752
51.4665
51.4758
51.4962
51.525
51.5609
51.6059
51.6349
51.7295
51.6915
51.8354
51.7994
51.8517
-0.776776
-0.689935
-0.840193
-0.616686
-0.648782
-0.54484
-0.466697
-0.384487
-0.300111
-0.214641
-0.129071
-0.0431681
51.4684
51.4648
51.475
51.4954
51.5243
51.5602
51.6053
51.6345
51.729
51.6915
51.8346
51.7985
51.8517
-0.777281
-0.6906
-0.841657
-0.617734
-0.649868
-0.545799
-0.467494
-0.385141
-0.300618
-0.215002
-0.129288
-0.043241
51.4657
51.4627
51.4733
51.4938
51.5227
51.5586
51.6038
51.6335
51.7276
51.6919
51.8333
51.7979
51.852
-0.779372
-0.693316
-0.844436
-0.620134
-0.652088
-0.54772
-0.469115
-0.386463
-0.301642
-0.21573
-0.129723
-0.0433861
51.4617
51.4598
51.4708
51.4914
51.5203
51.5563
51.6015
51.6318
51.7254
51.6921
51.831
51.7977
51.8523
-0.783166
-0.697176
-0.84854
-0.623677
-0.655387
-0.550568
-0.471528
-0.388434
-0.303169
-0.216815
-0.130372
-0.0436018
51.4578
51.4564
51.4676
51.4883
51.5172
51.5531
51.5984
51.6296
51.7225
51.692
51.8283
51.7975
51.8525
-0.788481
-0.702643
-0.853926
-0.628425
-0.659737
-0.554319
-0.474706
-0.391027
-0.305177
-0.218243
-0.131226
-0.0438852
51.4536
51.4526
51.4638
51.4845
51.5133
51.5491
51.5945
51.6267
51.7188
51.6916
51.8254
51.7972
51.8526
-0.795209
-0.709282
-0.860496
-0.634241
-0.665058
-0.558916
-0.478604
-0.394207
-0.307639
-0.219994
-0.132272
-0.0442327
51.4492
51.4483
51.4596
51.4801
51.5087
51.5445
51.5899
51.6233
51.7145
51.6911
51.822
51.797
51.8528
-0.803248
-0.717202
-0.868186
-0.641083
-0.671291
-0.564302
-0.483167
-0.397931
-0.310523
-0.222044
-0.133497
-0.0446396
51.4445
51.4437
51.4548
51.4752
51.5036
51.5393
51.5847
51.6193
51.7096
51.6905
51.8185
51.797
51.8533
-0.812468
-0.726162
-0.876867
-0.648835
-0.678341
-0.570398
-0.488333
-0.402147
-0.313787
-0.224365
-0.134885
-0.0451002
51.4397
51.4387
51.4497
51.4699
51.4981
51.5336
51.579
51.6149
51.7043
51.6892
51.8157
51.7974
51.8541
-0.822714
-0.736079
-0.886428
-0.657392
-0.686109
-0.577119
-0.494028
-0.406794
-0.317387
-0.226923
-0.136414
-0.0456081
51.4346
51.4336
51.4444
51.4642
51.4921
51.5274
51.5728
51.6101
51.6986
51.6875
51.8137
51.7981
51.8556
-0.833829
-0.746786
-0.896722
-0.666623
-0.694482
-0.584367
-0.50017
-0.411806
-0.321268
-0.229683
-0.138064
-0.0461558
51.4295
51.4283
51.4388
51.4582
51.4858
51.5209
51.5662
51.605
51.6927
51.6859
51.8121
51.7996
51.8581
-0.84564
-0.75812
-0.907599
-0.676391
-0.703335
-0.592034
-0.506667
-0.417109
-0.325375
-0.232604
-0.13981
-0.0467355
51.4243
51.4229
51.4331
51.4521
51.4793
51.5142
51.5594
51.5998
51.6868
51.6848
51.811
51.8021
51.8617
-0.857961
-0.769904
-0.918893
-0.686545
-0.712535
-0.600004
-0.513422
-0.422623
-0.329646
-0.23564
-0.141625
-0.0473383
51.4192
51.4176
51.4274
51.446
51.4727
51.5073
51.5526
51.5945
51.6808
51.6841
51.8109
51.8058
51.8668
-0.870606
-0.781954
-0.930428
-0.696929
-0.72194
-0.608154
-0.52033
-0.428262
-0.334014
-0.238747
-0.143482
-0.0479551
51.4141
51.4123
51.4217
51.4398
51.4661
51.5004
51.5457
51.5892
51.6751
51.6839
51.8117
51.811
51.8735
-0.883369
-0.794076
-0.942023
-0.707376
-0.731402
-0.616356
-0.527284
-0.43394
-0.338412
-0.241875
-0.145353
-0.0485761
51.4093
51.4073
51.4162
51.4338
51.4596
51.4937
51.539
51.5842
51.6696
51.6843
51.8138
51.8179
51.8822
-0.896054
-0.806082
-0.953491
-0.717723
-0.740769
-0.624479
-0.534172
-0.439564
-0.34277
-0.244974
-0.147205
-0.0491915
51.4047
51.4025
51.411
51.4281
51.4533
51.4872
51.5326
51.5795
51.6647
51.6854
51.8173
51.8264
51.8928
-0.908449
-0.817774
-0.964647
-0.7278
-0.74989
-0.63239
-0.540882
-0.445044
-0.347016
-0.247994
-0.149011
-0.0497912
51.4005
51.398
51.4061
51.4227
51.4474
51.481
51.5265
51.5751
51.6603
51.6871
51.822
51.8366
51.9052
-0.920359
-0.828966
-0.975306
-0.737444
-0.758613
-0.639961
-0.547303
-0.450289
-0.35108
-0.250885
-0.15074
-0.0503655
51.3968
51.394
51.4016
51.4177
51.4419
51.4753
51.5209
51.5712
51.6565
51.6894
51.8278
51.848
51.9192
-0.931585
-0.839469
-0.98529
-0.746493
-0.766793
-0.647063
-0.553328
-0.455212
-0.354895
-0.253598
-0.152362
-0.0509044
51.3936
51.3905
51.3976
51.4131
51.437
51.4701
51.5159
51.5678
51.6534
51.6921
51.8346
51.8601
51.9343
-0.941951
-0.849135
-0.994434
-0.754802
-0.774292
-0.653578
-0.558855
-0.459727
-0.358395
-0.256087
-0.153851
-0.0513989
51.3911
51.3875
51.3941
51.4092
51.4326
51.4655
51.5115
51.5649
51.6509
51.695
51.8419
51.8723
51.9498
-0.951285
-0.857772
-1.00257
-0.762219
-0.780977
-0.659393
-0.563789
-0.463758
-0.361519
-0.25831
-0.15518
-0.0518404
51.3893
51.3852
51.3912
51.4058
51.4288
51.4616
51.5078
51.5625
51.6491
51.698
51.8492
51.8842
51.9649
-0.959441
-0.865303
-1.00958
-0.768643
-0.786743
-0.664409
-0.568043
-0.467234
-0.364213
-0.260227
-0.156327
-0.0522211
51.3884
51.3835
51.389
51.4031
51.4258
51.4584
51.5047
51.5606
51.6477
51.7008
51.856
51.8951
51.9787
-0.966295
-0.871514
-1.01531
-0.77393
-0.791475
-0.668532
-0.571542
-0.470093
-0.36643
-0.261804
-0.157269
-0.0525342
51.3888
51.3826
51.3873
51.4011
51.4236
51.456
51.5025
51.5593
51.6469
51.7031
51.8618
51.9041
51.9904
-0.971743
-0.876484
-1.0197
-0.778035
-0.795112
-0.671698
-0.574228
-0.472287
-0.36813
-0.263013
-0.157992
-0.052774
51.3884
51.3819
51.3862
51.3998
51.422
51.4545
51.501
51.5584
51.6464
51.7047
51.8659
51.9109
51.9993
-0.975702
-0.879762
-1.02264
-0.780819
-0.797572
-0.673835
-0.576047
-0.473774
-0.369282
-0.263833
-0.158482
-0.0529362
51.3949
51.3826
51.3859
51.3992
51.4214
51.4537
51.5003
51.5581
51.6463
51.7059
51.8687
51.9141
52.0051
-0.978109
-0.882143
-1.02407
-0.782356
-0.798842
-0.674912
-0.57698
-0.474532
-0.369868
-0.26425
-0.158731
-0.0530175
51.4676
51.4638
51.474
51.4944
51.5232
51.559
51.604
51.633
51.7274
51.6898
51.8329
51.7971
51.8505
-0.779439
-0.692557
-0.843072
-0.619007
-0.650278
-0.546204
-0.467499
-0.384923
-0.300289
-0.214665
-0.129033
-0.0431365
51.461
51.4618
51.4732
51.4936
51.5224
51.5583
51.6034
51.6327
51.7268
51.6909
51.8285
51.7962
51.8507
-0.779903
-0.693249
-0.844564
-0.620079
-0.651384
-0.547181
-0.468308
-0.385586
-0.300804
-0.215031
-0.129252
-0.0432104
51.4583
51.4597
51.4715
51.492
51.5208
51.5567
51.6018
51.6316
51.7254
51.6917
51.8261
51.7955
51.8512
-0.782025
-0.696018
-0.847392
-0.622519
-0.653639
-0.549131
-0.469952
-0.386927
-0.301841
-0.215768
-0.129693
-0.0433571
51.4543
51.4569
51.4689
51.4895
51.5184
51.5543
51.5994
51.6299
51.7231
51.6922
51.8231
51.7952
51.8516
-0.785877
-0.699953
-0.851569
-0.626123
-0.656989
-0.552022
-0.4724
-0.388923
-0.303387
-0.216866
-0.130349
-0.0435753
51.4503
51.4536
51.4657
51.4864
51.5152
51.551
51.5962
51.6275
51.7199
51.692
51.8201
51.7949
51.8517
-0.79127
-0.70552
-0.857049
-0.630951
-0.661407
-0.555829
-0.475623
-0.391552
-0.305421
-0.218312
-0.131213
-0.0438622
51.4461
51.4498
51.4619
51.4825
51.5113
51.547
51.5923
51.6245
51.7161
51.6912
51.817
51.7945
51.8518
-0.798095
-0.712282
-0.863734
-0.636865
-0.666812
-0.560496
-0.479576
-0.394775
-0.307916
-0.220085
-0.132273
-0.044214
51.4417
51.4455
51.4576
51.4781
51.5067
51.5423
51.5875
51.6209
51.7115
51.6902
51.8137
51.7941
51.8519
-0.806251
-0.720347
-0.87156
-0.643823
-0.673144
-0.565964
-0.484205
-0.398551
-0.310838
-0.222162
-0.133514
-0.0446259
51.437
51.4408
51.4528
51.4732
51.5015
51.537
51.5822
51.6168
51.7064
51.6888
51.8103
51.7938
51.8521
-0.815603
-0.729472
-0.880396
-0.651708
-0.680308
-0.572155
-0.489448
-0.402826
-0.314147
-0.224513
-0.134919
-0.0450923
51.4322
51.4359
51.4477
51.4678
51.4958
51.5312
51.5763
51.6121
51.7008
51.6869
51.8073
51.7937
51.8527
-0.825997
-0.739573
-0.890129
-0.660413
-0.688203
-0.578982
-0.495228
-0.40754
-0.317796
-0.227106
-0.136469
-0.0456067
51.4271
51.4307
51.4423
51.462
51.4897
51.5248
51.5699
51.607
51.6947
51.6848
51.8045
51.794
51.8539
-0.837273
-0.750479
-0.900612
-0.669805
-0.696715
-0.586345
-0.501463
-0.412625
-0.321732
-0.229904
-0.13814
-0.0461617
51.4219
51.4254
51.4366
51.456
51.4833
51.5182
51.5631
51.6016
51.6884
51.6828
51.8021
51.795
51.856
-0.849256
-0.762025
-0.91169
-0.679746
-0.705718
-0.594136
-0.508061
-0.418007
-0.325898
-0.232865
-0.13991
-0.0467492
51.4167
51.42
51.4309
51.4498
51.4767
51.5113
51.5561
51.596
51.6819
51.681
51.8002
51.7969
51.8591
-0.861761
-0.774032
-0.923194
-0.690082
-0.715075
-0.602237
-0.514922
-0.423604
-0.330231
-0.235945
-0.141751
-0.0473603
51.4116
51.4146
51.4251
51.4436
51.47
51.5042
51.5489
51.5902
51.6754
51.6794
51.7991
51.8
51.8637
-0.87459
-0.786309
-0.934946
-0.700653
-0.724643
-0.610523
-0.521941
-0.429331
-0.334665
-0.239097
-0.143635
-0.0479858
51.4065
51.4093
51.4194
51.4374
51.4633
51.4971
51.5417
51.5845
51.669
51.6783
51.7989
51.8044
51.8698
-0.887545
-0.798665
-0.946761
-0.711292
-0.734272
-0.618864
-0.529008
-0.435098
-0.33913
-0.242271
-0.145532
-0.0486158
51.4017
51.4042
51.4139
51.4313
51.4567
51.4902
51.5347
51.579
51.663
51.6777
51.8
51.8105
51.8777
-0.900416
-0.810899
-0.958449
-0.721828
-0.743806
-0.627126
-0.53601
-0.440812
-0.343555
-0.245417
-0.147413
-0.0492403
51.3971
51.3994
51.4086
51.4255
51.4503
51.4835
51.528
51.5738
51.6573
51.6778
51.8023
51.8182
51.8876
-0.912997
-0.822815
-0.96982
-0.732093
-0.753092
-0.635176
-0.542833
-0.446381
-0.347868
-0.248484
-0.149246
-0.0498491
51.3929
51.3949
51.4037
51.42
51.4443
51.4771
51.5216
51.5689
51.6523
51.6784
51.8059
51.8274
51.8994
-0.92508
-0.834223
-0.980686
-0.741917
-0.761974
-0.64288
-0.549364
-0.451713
-0.351998
-0.25142
-0.151001
-0.050432
51.3892
51.3909
51.3991
51.4149
51.4386
51.4711
51.5156
51.5644
51.6479
51.6795
51.8106
51.8378
51.9127
-0.936474
-0.844928
-0.990865
-0.751137
-0.770305
-0.650109
-0.555493
-0.456717
-0.355875
-0.254176
-0.152649
-0.0509793
51.386
51.3873
51.3951
51.4103
51.4335
51.4657
51.5103
51.5605
51.6441
51.6811
51.8162
51.8488
51.9271
-0.946993
-0.85478
-1.00019
-0.759603
-0.777943
-0.656741
-0.561117
-0.461309
-0.359432
-0.256706
-0.154162
-0.0514816
51.3834
51.3844
51.3916
51.4063
51.429
51.461
51.5056
51.5572
51.6411
51.6831
51.8223
51.8601
51.942
-0.956465
-0.863582
-1.00848
-0.767161
-0.784754
-0.662661
-0.566137
-0.465409
-0.362608
-0.258965
-0.155512
-0.0519301
51.3816
51.382
51.3887
51.4029
51.4252
51.4569
51.5016
51.5544
51.6387
51.6851
51.8285
51.8712
51.9565
-0.964736
-0.871256
-1.01563
-0.773706
-0.790628
-0.667768
-0.570467
-0.468945
-0.365348
-0.260913
-0.156677
-0.0523169
51.3806
51.3803
51.3864
51.4001
51.4221
51.4536
51.4984
51.5522
51.6369
51.687
51.8343
51.8813
51.9698
-0.97169
-0.877582
-1.02148
-0.779094
-0.79545
-0.671966
-0.574029
-0.471855
-0.367602
-0.262516
-0.157636
-0.0526352
51.3811
51.3794
51.3847
51.3981
51.4198
51.4511
51.4959
51.5505
51.6357
51.6887
51.8394
51.8897
51.9811
-0.977216
-0.88264
-1.02595
-0.783275
-0.799155
-0.675189
-0.576762
-0.474087
-0.369331
-0.263746
-0.158371
-0.0528789
51.3807
51.3787
51.3836
51.3967
51.4182
51.4495
51.4943
51.5495
51.635
51.6898
51.843
51.8959
51.9895
-0.981229
-0.88598
-1.02895
-0.786111
-0.801662
-0.677365
-0.578614
-0.475599
-0.370503
-0.264579
-0.158868
-0.0530438
51.3871
51.3794
51.3832
51.3962
51.4175
51.4487
51.4936
51.549
51.6347
51.6904
51.8467
51.8981
51.9946
-0.983672
-0.888386
-1.0304
-0.787671
-0.802952
-0.678458
-0.579562
-0.47637
-0.371099
-0.265003
-0.159121
-0.0531264
51.4627
51.4597
51.4702
51.4906
51.5193
51.5549
51.5998
51.6291
51.7229
51.6866
51.828
51.7931
51.8477
-0.78548
-0.699054
-0.848522
-0.623519
-0.652984
-0.548586
-0.468824
-0.38555
-0.300444
-0.214558
-0.128851
-0.0430311
51.4562
51.4577
51.4693
51.4898
51.5185
51.5542
51.5992
51.6287
51.7223
51.6881
51.8226
51.7922
51.8481
-0.785962
-0.699787
-0.850056
-0.624631
-0.654123
-0.549592
-0.469657
-0.386231
-0.300971
-0.214933
-0.129075
-0.0431065
51.4534
51.4557
51.4676
51.4881
51.5169
51.5526
51.5975
51.6275
51.7206
51.6891
51.8199
51.7915
51.8487
-0.78816
-0.702655
-0.85298
-0.627152
-0.656446
-0.551597
-0.471345
-0.387606
-0.302035
-0.215688
-0.129527
-0.0432566
51.4493
51.4529
51.465
51.4856
51.5144
51.5501
51.595
51.6257
51.7181
51.6893
51.8167
51.791
51.849
-0.79214
-0.706739
-0.857299
-0.630877
-0.659898
-0.554572
-0.473861
-0.389655
-0.30362
-0.216813
-0.130199
-0.0434798
51.4453
51.4495
51.4618
51.4824
51.5111
51.5467
51.5917
51.6231
51.7146
51.6885
51.8136
51.7904
51.8489
-0.797716
-0.712509
-0.862967
-0.635865
-0.664452
-0.558492
-0.477174
-0.392353
-0.305706
-0.218295
-0.131083
-0.0437734
51.4411
51.4456
51.458
51.4785
51.5071
51.5426
51.5875
51.6198
51.7104
51.6872
51.8101
51.7896
51.8486
-0.80477
-0.719521
-0.869885
-0.641977
-0.670026
-0.563298
-0.481238
-0.395664
-0.308265
-0.220112
-0.132169
-0.0441336
51.4367
51.4412
51.4536
51.474
51.5024
51.5377
51.5825
51.6159
51.7054
51.6855
51.8061
51.7886
51.8482
-0.813198
-0.727883
-0.877986
-0.649169
-0.676558
-0.568931
-0.486
-0.399542
-0.311264
-0.222242
-0.133441
-0.0445557
51.432
51.4365
51.4488
51.469
51.497
51.5322
51.5769
51.6113
51.6998
51.6833
51.8019
51.7874
51.8478
-0.822862
-0.737346
-0.887136
-0.657322
-0.68395
-0.575311
-0.491395
-0.403936
-0.314661
-0.224654
-0.134882
-0.0450338
51.4271
51.4315
51.4436
51.4635
51.4912
51.5261
51.5706
51.6061
51.6935
51.6805
51.7977
51.7864
51.8475
-0.833604
-0.747821
-0.897218
-0.666325
-0.692102
-0.58235
-0.497346
-0.408784
-0.318409
-0.227316
-0.136472
-0.0455613
51.422
51.4263
51.4381
51.4576
51.4849
51.5195
51.5638
51.6004
51.6866
51.6775
51.7934
51.7855
51.8476
-0.845259
-0.759136
-0.908081
-0.676044
-0.700894
-0.589946
-0.503769
-0.414016
-0.322455
-0.230189
-0.138188
-0.0461308
51.4168
51.4209
51.4324
51.4515
51.4783
51.5125
51.5565
51.5943
51.6794
51.6743
51.7892
51.785
51.8482
-0.857646
-0.771117
-0.919565
-0.686333
-0.710198
-0.597988
-0.51057
-0.419556
-0.32674
-0.233232
-0.140006
-0.046734
51.4115
51.4155
51.4266
51.4452
51.4715
51.5052
51.549
51.5879
51.6718
51.6709
51.7853
51.7851
51.8497
-0.870575
-0.783579
-0.931496
-0.697036
-0.719874
-0.606353
-0.517645
-0.425322
-0.331199
-0.2364
-0.141898
-0.0473619
51.4063
51.41
51.4207
51.4388
51.4645
51.4978
51.5412
51.5813
51.6642
51.6677
51.7819
51.7862
51.8522
-0.883842
-0.796325
-0.943688
-0.707987
-0.729772
-0.614914
-0.524888
-0.431224
-0.335764
-0.239642
-0.143835
-0.0480049
51.4012
51.4047
51.4149
51.4324
51.4575
51.4903
51.5334
51.5746
51.6565
51.6647
51.7793
51.7885
51.8561
-0.897238
-0.809154
-0.95595
-0.719012
-0.739738
-0.623536
-0.532184
-0.437171
-0.340364
-0.24291
-0.145787
-0.0486529
51.3963
51.3995
51.4093
51.4262
51.4507
51.483
51.5258
51.5681
51.6491
51.662
51.7776
51.7921
51.8615
-0.910548
-0.82186
-0.968083
-0.729935
-0.749612
-0.632081
-0.539417
-0.443067
-0.344926
-0.246151
-0.147724
-0.0492957
51.3917
51.3946
51.4039
51.4202
51.444
51.4758
51.5183
51.5618
51.6421
51.6598
51.777
51.7968
51.8687
-0.923558
-0.834237
-0.979891
-0.740579
-0.759231
-0.64041
-0.546469
-0.448817
-0.349375
-0.249312
-0.149612
-0.0499226
51.3874
51.3901
51.3988
51.4145
51.4377
51.469
51.5112
51.5558
51.6356
51.6581
51.7776
51.8031
51.8775
-0.936054
-0.846086
-0.991178
-0.750769
-0.768437
-0.648384
-0.553222
-0.454324
-0.353636
-0.252339
-0.151422
-0.0505233
51.3836
51.386
51.3942
51.4093
51.4318
51.4626
51.5046
51.5503
51.6297
51.657
51.7794
51.8102
51.8879
-0.947838
-0.857207
-1.00175
-0.760334
-0.777074
-0.65587
-0.559562
-0.459496
-0.357638
-0.255183
-0.153121
-0.0510875
51.3804
51.3824
51.3901
51.4045
51.4265
51.4568
51.4986
51.5453
51.6246
51.6563
51.7821
51.8181
51.8993
-0.958714
-0.86744
-1.01144
-0.769119
-0.784996
-0.66274
-0.565382
-0.464243
-0.361313
-0.257794
-0.154681
-0.0516055
51.3778
51.3794
51.3865
51.4004
51.4218
51.4517
51.4933
51.541
51.6203
51.6562
51.7856
51.8265
51.9113
-0.968507
-0.876583
-1.02006
-0.776962
-0.792062
-0.668874
-0.570578
-0.468483
-0.364595
-0.260127
-0.156075
-0.0520683
51.376
51.3771
51.3835
51.3968
51.4177
51.4473
51.4888
51.5373
51.6167
51.6563
51.7893
51.8348
51.923
-0.977061
-0.884551
-1.02749
-0.783755
-0.798157
-0.674168
-0.575062
-0.47214
-0.367426
-0.262139
-0.157278
-0.0524676
51.375
51.3753
51.3812
51.394
51.4145
51.4437
51.4851
51.5344
51.614
51.6566
51.793
51.8424
51.934
-0.984247
-0.891122
-1.03357
-0.789347
-0.803161
-0.678519
-0.578751
-0.475151
-0.369757
-0.263795
-0.158268
-0.0527962
51.3754
51.3744
51.3795
51.3919
51.412
51.441
51.4823
51.5322
51.612
51.657
51.7964
51.8489
51.9432
-0.989957
-0.89637
-1.03822
-0.793684
-0.807007
-0.681861
-0.581582
-0.477461
-0.371545
-0.265066
-0.159027
-0.0530481
51.375
51.3737
51.3784
51.3905
51.4104
51.4392
51.4805
51.5307
51.6107
51.6573
51.7987
51.8537
51.95
-0.994103
-0.89984
-1.04134
-0.796627
-0.80961
-0.684117
-0.583501
-0.479027
-0.372757
-0.265927
-0.159542
-0.0532185
51.3813
51.3744
51.3779
51.3899
51.4096
51.4384
51.4796
51.5301
51.6102
51.6574
51.8015
51.8566
51.9538
-0.996619
-0.902324
-1.04286
-0.79824
-0.810949
-0.685251
-0.584482
-0.479824
-0.373373
-0.266365
-0.159803
-0.0533039
51.4558
51.4537
51.4645
51.4849
51.5134
51.5488
51.5935
51.623
51.716
51.6816
51.8203
51.7878
51.8429
-0.795509
-0.70854
-0.856432
-0.630186
-0.656884
-0.551987
-0.470665
-0.386352
-0.300557
-0.214306
-0.128516
-0.0428484
51.4493
51.4519
51.4636
51.4841
51.5126
51.5481
51.5928
51.6226
51.7152
51.6834
51.8142
51.7867
51.8433
-0.796047
-0.709348
-0.858037
-0.631359
-0.658073
-0.553035
-0.471531
-0.387058
-0.301104
-0.214694
-0.128747
-0.0429259
51.4464
51.4498
51.4619
51.4824
51.5109
51.5463
51.591
51.6213
51.7134
51.6841
51.8113
51.7858
51.8439
-0.798374
-0.712372
-0.861107
-0.634003
-0.660499
-0.555125
-0.473287
-0.388486
-0.302206
-0.215475
-0.129213
-0.0430809
51.4423
51.4469
51.4593
51.4798
51.5083
51.5437
51.5884
51.6192
51.7105
51.6836
51.808
51.785
51.8439
-0.802568
-0.716688
-0.865641
-0.637909
-0.664105
-0.558227
-0.475904
-0.390614
-0.303849
-0.21664
-0.129909
-0.0433117
51.4383
51.4435
51.4561
51.4765
51.5049
51.5402
51.5848
51.6163
51.7067
51.6823
51.8042
51.7839
51.8435
-0.808438
-0.722769
-0.871596
-0.643139
-0.668864
-0.562316
-0.479352
-0.393416
-0.306012
-0.218175
-0.130825
-0.0436154
51.4341
51.4395
51.4522
51.4726
51.5008
51.5358
51.5803
51.6126
51.7019
51.6804
51.7999
51.7824
51.8426
-0.81586
-0.730164
-0.878867
-0.649552
-0.674692
-0.567331
-0.483584
-0.396857
-0.308668
-0.220059
-0.131949
-0.0439882
51.4296
51.4351
51.4477
51.4679
51.4959
51.5307
51.5749
51.6082
51.6963
51.6778
51.7949
51.7804
51.8412
-0.824724
-0.738976
-0.887385
-0.657098
-0.681525
-0.573213
-0.488545
-0.400891
-0.311782
-0.222268
-0.133267
-0.0444253
51.4248
51.4303
51.4428
51.4628
51.4904
51.5249
51.5688
51.6029
51.6898
51.6744
51.7895
51.7781
51.8396
-0.83489
-0.748955
-0.897013
-0.665658
-0.689264
-0.579879
-0.49417
-0.405463
-0.315313
-0.224772
-0.134762
-0.0449209
51.4199
51.4253
51.4375
51.4571
51.4843
51.5184
51.562
51.597
51.6825
51.6704
51.7835
51.7754
51.8378
-0.846193
-0.760003
-0.907627
-0.675114
-0.697804
-0.587239
-0.500379
-0.410512
-0.319211
-0.227537
-0.136412
-0.0454682
51.4147
51.42
51.4319
51.4511
51.4777
51.5114
51.5546
51.5904
51.6744
51.6658
51.777
51.7725
51.8358
-0.858459
-0.77194
-0.91907
-0.685328
-0.707021
-0.595187
-0.507086
-0.415966
-0.323422
-0.230525
-0.138196
-0.0460596
51.4095
51.4145
51.4261
51.4447
51.4708
51.504
51.5466
51.5832
51.6658
51.6606
51.7702
51.7696
51.8338
-0.871497
-0.784585
-0.931174
-0.696148
-0.716783
-0.603607
-0.514193
-0.421746
-0.327885
-0.233691
-0.140086
-0.0466865
51.4042
51.409
51.4201
51.4382
51.4636
51.4962
51.5383
51.5756
51.6567
51.6549
51.7631
51.7668
51.8321
-0.885112
-0.797742
-0.943756
-0.70741
-0.726942
-0.612374
-0.521593
-0.427766
-0.332534
-0.23699
-0.142055
-0.0473396
51.3989
51.4034
51.4141
51.4316
51.4563
51.4882
51.5297
51.5677
51.6472
51.6489
51.7561
51.7645
51.8309
-0.899086
-0.811205
-0.956621
-0.718938
-0.737342
-0.621352
-0.529175
-0.433934
-0.337299
-0.24037
-0.144073
-0.048009
51.3937
51.398
51.4082
51.425
51.449
51.4801
51.5209
51.5596
51.6376
51.6428
51.7494
51.763
51.8304
-0.913199
-0.824758
-0.969565
-0.730552
-0.747822
-0.630401
-0.536819
-0.440154
-0.342103
-0.24378
-0.146108
-0.0486843
51.3888
51.3928
51.4024
51.4185
51.4417
51.4721
51.5123
51.5515
51.628
51.6368
51.7433
51.7617
51.831
-0.927221
-0.838185
-0.982381
-0.742064
-0.758211
-0.639376
-0.544403
-0.446326
-0.346872
-0.247164
-0.148129
-0.0493546
51.3841
51.3878
51.3969
51.4123
51.4347
51.4643
51.5038
51.5436
51.6187
51.631
51.738
51.7617
51.8328
-0.940932
-0.851266
-0.994857
-0.753287
-0.768339
-0.64813
-0.551802
-0.45235
-0.351526
-0.250467
-0.150101
-0.0500091
51.3798
51.3832
51.3917
51.4064
51.428
51.4568
51.4957
51.5359
51.61
51.6257
51.7337
51.7624
51.836
-0.954098
-0.863792
-1.00679
-0.764036
-0.778039
-0.656517
-0.558892
-0.458123
-0.355988
-0.253633
-0.151992
-0.0506366
51.3759
51.379
51.3869
51.4009
51.4217
51.4498
51.488
51.5288
51.6018
51.6209
51.7306
51.7641
51.8405
-0.966503
-0.875549
-1.01797
-0.774129
-0.787143
-0.664394
-0.565554
-0.463549
-0.360181
-0.25661
-0.15377
-0.0512265
51.3726
51.3753
51.3827
51.396
51.416
51.4434
51.4811
51.5222
51.5945
51.6167
51.7286
51.7667
51.8461
-0.977943
-0.886365
-1.02821
-0.783401
-0.795498
-0.671627
-0.571672
-0.468532
-0.364033
-0.259344
-0.155403
-0.0517685
51.37
51.3723
51.379
51.3916
51.411
51.4377
51.4749
51.5164
51.5882
51.6131
51.7275
51.7699
51.8524
-0.988253
-0.896028
-1.03733
-0.791682
-0.802953
-0.678088
-0.577138
-0.472985
-0.367475
-0.261789
-0.156863
-0.052253
51.3681
51.3698
51.3759
51.3879
51.4066
51.4329
51.4696
51.5114
51.5828
51.6102
51.727
51.7734
51.8587
-0.99726
-0.904445
-1.04519
-0.798853
-0.809387
-0.683665
-0.581856
-0.476829
-0.370447
-0.263899
-0.158123
-0.0526712
51.3671
51.3681
51.3735
51.385
51.4031
51.4289
51.4652
51.5073
51.5784
51.608
51.727
51.7766
51.8646
-1.00482
-0.911385
-1.05162
-0.804755
-0.814669
-0.688251
-0.585739
-0.479993
-0.372894
-0.265636
-0.159161
-0.0530156
51.3675
51.3671
51.3718
51.3827
51.4005
51.4258
51.4619
51.5042
51.5752
51.6063
51.7272
51.7792
51.8696
-1.01083
-0.916915
-1.05655
-0.809334
-0.818732
-0.691775
-0.58872
-0.482422
-0.374772
-0.266969
-0.159957
-0.0532797
51.367
51.3664
51.3706
51.3813
51.3987
51.4238
51.4597
51.5021
51.573
51.6052
51.7273
51.7812
51.873
-1.01518
-0.920579
-1.05985
-0.812439
-0.821479
-0.694154
-0.59074
-0.484069
-0.376045
-0.267873
-0.160497
-0.0534586
51.3733
51.367
51.3701
51.3806
51.3979
51.4229
51.4586
51.5012
51.5719
51.6048
51.728
51.7824
51.8748
-1.01781
-0.923159
-1.06146
-0.814132
-0.822894
-0.695349
-0.591773
-0.484907
-0.376692
-0.268333
-0.160771
-0.0535485
51.4478
51.4463
51.4572
51.4774
51.5056
51.5407
51.585
51.6149
51.7068
51.6746
51.8104
51.7803
51.836
-0.80927
-0.721329
-0.866853
-0.63901
-0.661931
-0.556331
-0.472945
-0.387255
-0.300566
-0.213861
-0.127997
-0.0425784
51.4413
51.4445
51.4563
51.4765
51.5048
51.5399
51.5842
51.6143
51.7058
51.6764
51.8039
51.7792
51.8365
-0.809877
-0.722237
-0.868552
-0.640264
-0.663187
-0.557435
-0.473855
-0.387996
-0.301137
-0.214265
-0.128238
-0.0426588
51.4384
51.4424
51.4545
51.4748
51.503
51.5381
51.5824
51.6129
51.7037
51.6764
51.8011
51.7781
51.8368
-0.812387
-0.725474
-0.871818
-0.643072
-0.66575
-0.559639
-0.475701
-0.389493
-0.302291
-0.215082
-0.128725
-0.0428202
51.4343
51.4394
51.4519
51.4722
51.5003
51.5353
51.5795
51.6105
51.7004
51.6755
51.7971
51.7768
51.8365
-0.81688
-0.730105
-0.876644
-0.647225
-0.669564
-0.562911
-0.478454
-0.391725
-0.304011
-0.2163
-0.129451
-0.0430609
51.4303
51.4359
51.4486
51.4688
51.4968
51.5315
51.5755
51.6072
51.6961
51.6736
51.7925
51.775
51.8354
-0.823154
-0.736609
-0.882988
-0.652784
-0.674598
-0.567227
-0.482082
-0.394667
-0.306278
-0.217905
-0.130408
-0.043378
51.426
51.4319
51.4446
51.4647
51.4924
51.5269
51.5707
51.603
51.6906
51.6709
51.787
51.7725
51.8335
-0.831085
-0.744524
-0.890738
-0.659601
-0.680767
-0.572523
-0.486538
-0.398281
-0.309062
-0.219878
-0.131584
-0.0437676
51.4215
51.4274
51.4401
51.4599
51.4873
51.5215
51.5648
51.5978
51.6841
51.6671
51.7807
51.7692
51.8309
-0.84056
-0.75395
-0.899823
-0.667627
-0.688006
-0.578738
-0.491767
-0.402522
-0.31233
-0.222192
-0.132964
-0.0442248
51.4167
51.4226
51.435
51.4546
51.4815
51.5152
51.5582
51.5918
51.6765
51.6623
51.7734
51.7651
51.8275
-0.851425
-0.76463
-0.910099
-0.676736
-0.696212
-0.585789
-0.497699
-0.407334
-0.316038
-0.224819
-0.13453
-0.0447437
51.4116
51.4174
51.4296
51.4487
51.4751
51.5083
51.5506
51.5848
51.6679
51.6564
51.765
51.7601
51.8233
-0.863508
-0.776457
-0.921436
-0.686806
-0.705275
-0.59358
-0.504255
-0.412652
-0.320137
-0.227722
-0.136261
-0.0453174
51.4064
51.412
51.4239
51.4424
51.4682
51.5007
51.5424
51.577
51.6583
51.6495
51.7555
51.7543
51.8182
-0.876624
-0.789243
-0.933668
-0.697691
-0.715067
-0.602002
-0.511343
-0.418403
-0.324569
-0.230862
-0.138134
-0.0459379
51.4011
51.4065
51.4179
51.4359
51.4609
51.4927
51.5335
51.5685
51.6477
51.6416
51.745
51.7477
51.8123
-0.890573
-0.802794
-0.946616
-0.709231
-0.725447
-0.610934
-0.518863
-0.424505
-0.329272
-0.234194
-0.140121
-0.0465964
51.3957
51.4008
51.4117
51.4291
51.4533
51.4842
51.5241
51.5593
51.6364
51.6326
51.7334
51.7406
51.8056
-0.905139
-0.816899
-0.960085
-0.721252
-0.736261
-0.620243
-0.526702
-0.430868
-0.334177
-0.237669
-0.142193
-0.0472833
51.3904
51.3952
51.4056
51.4222
51.4455
51.4755
51.5144
51.5496
51.6245
51.6228
51.7211
51.733
51.7983
-0.920095
-0.831339
-0.973867
-0.733567
-0.747343
-0.629786
-0.534741
-0.437395
-0.339209
-0.241234
-0.14432
-0.0479883
51.3851
51.3896
51.3995
51.4153
51.4377
51.4667
51.5044
51.5395
51.6121
51.6122
51.7083
51.7247
51.7907
-0.935201
-0.845882
-0.987744
-0.745982
-0.75852
-0.639415
-0.542856
-0.443984
-0.344289
-0.244834
-0.146467
-0.0487002
51.3801
51.3843
51.3935
51.4085
51.4299
51.4578
51.4944
51.5293
51.5996
51.6014
51.6956
51.716
51.7831
-0.950218
-0.860294
-1.00149
-0.758297
-0.769611
-0.648974
-0.550915
-0.450529
-0.349337
-0.248412
-0.148601
-0.0494078
51.3753
51.3792
51.3878
51.402
51.4224
51.4492
51.4845
51.5191
51.5871
51.5904
51.6834
51.7076
51.7759
-0.964897
-0.874339
-1.01488
-0.77031
-0.780433
-0.658306
-0.558786
-0.456923
-0.354269
-0.251907
-0.150687
-0.0500993
51.3709
51.3744
51.3824
51.3958
51.4152
51.4409
51.475
51.5092
51.5751
51.5798
51.6719
51.6995
51.7695
-0.978999
-0.88779
-1.02769
-0.781821
-0.790804
-0.667254
-0.566335
-0.463059
-0.359002
-0.255262
-0.152689
-0.0507631
51.367
51.3702
51.3775
51.39
51.4084
51.433
51.466
51.4998
51.5637
51.5697
51.6615
51.6924
51.7641
-0.992292
-0.900416
-1.0397
-0.792636
-0.800546
-0.675665
-0.573435
-0.468829
-0.363455
-0.258418
-0.154572
-0.0513877
51.3637
51.3664
51.3731
51.3848
51.4023
51.4259
51.4578
51.4911
51.5532
51.5604
51.6523
51.6861
51.7596
-1.00456
-0.91203
-1.05071
-0.802573
-0.809492
-0.683392
-0.579959
-0.474133
-0.367548
-0.26132
-0.156304
-0.0519621
51.361
51.3633
51.3693
51.3802
51.3968
51.4194
51.4504
51.4833
51.5438
51.5521
51.6442
51.6806
51.7558
-1.0156
-0.922404
-1.06051
-0.81145
-0.817478
-0.690299
-0.585792
-0.478877
-0.371209
-0.263916
-0.157853
-0.052476
51.359
51.3608
51.3661
51.3763
51.3921
51.4139
51.444
51.4765
51.5356
51.5448
51.6373
51.6756
51.7524
-1.02524
-0.931433
-1.06896
-0.819138
-0.824373
-0.696264
-0.590829
-0.482973
-0.374371
-0.266158
-0.159191
-0.05292
51.3579
51.359
51.3636
51.3732
51.3883
51.4094
51.4387
51.4708
51.5289
51.5388
51.6315
51.6711
51.7493
-1.03333
-0.938878
-1.07588
-0.825465
-0.830037
-0.70117
-0.594976
-0.486348
-0.376976
-0.268006
-0.160294
-0.0532858
51.3583
51.3579
51.3618
51.3708
51.3854
51.4059
51.4347
51.4665
51.5237
51.5342
51.6269
51.6669
51.7461
-1.03974
-0.944793
-1.08117
-0.830371
-0.834393
-0.70494
-0.598162
-0.488939
-0.378976
-0.269424
-0.161141
-0.0535666
51.3578
51.3572
51.3605
51.3692
51.3835
51.4036
51.432
51.4636
51.5201
51.531
51.6233
51.6635
51.743
-1.04439
-0.948721
-1.08473
-0.833698
-0.83734
-0.707487
-0.600321
-0.490696
-0.380333
-0.270387
-0.161715
-0.0537569
51.3641
51.3579
51.3601
51.3686
51.3826
51.4026
51.4307
51.4622
51.5183
51.5297
51.6221
51.66
51.7406
-1.04717
-0.951437
-1.08646
-0.835503
-0.838857
-0.708766
-0.601423
-0.49159
-0.381023
-0.270876
-0.162008
-0.0538529
51.4387
51.4374
51.4482
51.4682
51.496
51.5306
51.5745
51.6047
51.6953
51.6654
51.7984
51.771
51.8271
-0.826823
-0.737451
-0.879762
-0.649968
-0.668057
-0.561512
-0.475563
-0.388162
-0.300387
-0.213159
-0.127257
-0.042208
51.4321
51.4356
51.4473
51.4673
51.4951
51.5297
51.5736
51.6041
51.6942
51.6669
51.7918
51.7698
51.8275
-0.827539
-0.738488
-0.881579
-0.651325
-0.669397
-0.562687
-0.476528
-0.388945
-0.300989
-0.213584
-0.127509
-0.042292
51.4293
51.4335
51.4455
51.4655
51.4933
51.5278
51.5716
51.6024
51.6917
51.6666
51.7886
51.7683
51.8276
-0.830289
-0.741999
-0.885095
-0.654343
-0.672133
-0.565032
-0.478487
-0.390528
-0.302206
-0.214444
-0.128021
-0.0424613
51.4251
51.4304
51.4428
51.4628
51.4905
51.5248
51.5684
51.5996
51.688
51.6651
51.7839
51.7664
51.8267
-0.83517
-0.747034
-0.890294
-0.658807
-0.676207
-0.568518
-0.481408
-0.39289
-0.304022
-0.215728
-0.128785
-0.0427143
51.4211
51.4268
51.4394
51.4593
51.4867
51.5208
51.5641
51.5958
51.683
51.6625
51.7783
51.7637
51.8248
-0.841972
-0.754077
-0.897131
-0.66478
-0.681588
-0.573117
-0.485261
-0.396006
-0.306416
-0.217421
-0.129793
-0.0430479
51.4167
51.4227
51.4354
51.455
51.4821
51.5159
51.5588
51.591
51.6767
51.6586
51.7715
51.7599
51.8217
-0.850567
-0.762658
-0.905492
-0.67211
-0.688187
-0.578766
-0.489998
-0.399837
-0.309361
-0.219503
-0.131033
-0.0434583