/*--------------------------------*- C++ -*----------------------------------*\
  =========                 |
  \\      /  F ield         | OpenFOAM: The Open Source CFD Toolbox
   \\    /   O peration     | Website:  https://openfoam.org
    \\  /    A nd           | Version:  11
     \\/     M anipulation  |
\*---------------------------------------------------------------------------*/
FoamFile
{
    format      ascii;
    class       volScalarField;
    location    "33";
    object      epsilon;
}
// * * * * * * * * * * * * * * * * * * * * * * * * * * * * * * * * * * * * * //

dimensions      [0 2 -3 0 0 0 0];

internalField   nonuniform List<scalar> 
81
(
127.192
126.642
126.2
126.056
126.022
125.981
125.854
125.591
129.13
10.1254
10.7606
10.6972
10.5602
10.4623
10.3669
10.2601
10.3417
11.3979
4.98157
5.49137
5.50453
5.38847
5.28281
5.17702
5.08921
5.27179
6.06193
1.78581
2.10815
2.15024
2.07215
1.98531
1.89721
1.8451
2.03186
2.51768
0.380298
0.497879
0.526725
0.492709
0.450461
0.412312
0.398746
0.49108
0.700479
0.0483324
0.0671747
0.0750228
0.0681964
0.059163
0.0523301
0.0514669
0.0709825
0.119349
0.00510288
0.00699072
0.00807739
0.00731337
0.0062017
0.00544365
0.00554908
0.00825487
0.0148282
0.000525819
0.000698596
0.000811826
0.000741835
0.000628479
0.000554915
0.000589797
0.000924452
0.00165454
6.0238e-05
7.69964e-05
8.82511e-05
8.18748e-05
7.03377e-05
6.32127e-05
6.97575e-05
0.000112083
0.000193804
)
;

boundaryField
{
    inlet
    {
        type            fixedValue;
        value           uniform 14.855;
    }
    outlet
    {
        type            zeroGradient;
    }
    lowerWall
    {
        type            epsilonWallFunction;
        value           nonuniform List<scalar> 9(127.192 10.1254 4.98157 1.78581 0.380298 0.0483324 0.00510288 0.000525819 6.0238e-05);
    }
    upperWall
    {
        type            epsilonWallFunction;
        value           nonuniform List<scalar> 
81
(
127.192
10.1254
4.98157
1.78581
0.380298
0.0483324
0.00510288
0.000525819
6.0238e-05
126.642
10.7606
5.49137
2.10815
0.497879
0.0671747
0.00699072
0.000698596
7.69964e-05
126.2
10.6972
5.50453
2.15024
0.526725
0.0750228
0.00807739
0.000811826
8.82511e-05
126.056
10.5602
5.38847
2.07215
0.492709
0.0681964
0.00731337
0.000741835
8.18748e-05
126.022
10.4623
5.28281
1.98531
0.450461
0.059163
0.0062017
0.000628479
7.03377e-05
125.981
10.3669
5.17702
1.89721
0.412312
0.0523301
0.00544365
0.000554915
6.32127e-05
125.854
10.2601
5.08921
1.8451
0.398746
0.0514669
0.00554908
0.000589797
6.97575e-05
125.591
10.3417
5.27179
2.03186
0.49108
0.0709825
0.00825487
0.000924452
0.000112083
129.13
11.3979
6.06193
2.51768
0.700479
0.119349
0.0148282
0.00165454
0.000193804
)
;
    }
    defaultFaces
    {
        type            empty;
    }
}


// ************************************************************************* //
