/*--------------------------------*- C++ -*----------------------------------*\
  =========                 |
  \\      /  F ield         | OpenFOAM: The Open Source CFD Toolbox
   \\    /   O peration     | Website:  https://openfoam.org
    \\  /    A nd           | Version:  11
     \\/     M anipulation  |
\*---------------------------------------------------------------------------*/
FoamFile
{
    format      ascii;
    class       volScalarField;
    location    "33";
    object      k;
}
// * * * * * * * * * * * * * * * * * * * * * * * * * * * * * * * * * * * * * //

dimensions      [0 2 -2 0 0 0 0];

internalField   nonuniform List<scalar> 
81
(
0.293104
0.292259
0.291578
0.291356
0.291303
0.291241
0.291046
0.290638
0.296072
0.126579
0.134511
0.133712
0.131999
0.130779
0.129598
0.128267
0.129271
0.142451
0.0622888
0.0686462
0.068802
0.0673517
0.0660408
0.0647315
0.0636332
0.0658937
0.0757335
0.0223443
0.0263579
0.0268734
0.0258988
0.024823
0.0237322
0.0230798
0.0253759
0.0314154
0.00476434
0.00622859
0.00658196
0.00615737
0.00563426
0.00516122
0.00498849
0.0061216
0.00871122
0.000606268
0.000841428
0.000937568
0.000852282
0.000740233
0.000655348
0.000643601
0.000882315
0.00147543
6.40549e-05
8.76181e-05
0.000101013
9.1443e-05
7.7612e-05
6.81696e-05
6.9302e-05
0.000102189
0.000182287
6.60422e-06
8.76139e-06
1.01641e-05
9.28333e-06
7.86681e-06
6.94666e-06
7.35238e-06
1.13982e-05
2.02484e-05
7.56623e-07
9.65783e-07
1.10516e-06
1.02469e-06
8.80361e-07
7.90782e-07
8.67891e-07
1.37717e-06
2.36338e-06
)
;

boundaryField
{
    inlet
    {
        type            fixedValue;
        value           uniform 0.375;
    }
    outlet
    {
        type            zeroGradient;
    }
    lowerWall
    {
        type            kqRWallFunction;
        value           nonuniform List<scalar> 9(0.293104 0.126579 0.0622888 0.0223443 0.00476434 0.000606268 6.40549e-05 6.60422e-06 7.56623e-07);
    }
    upperWall
    {
        type            kqRWallFunction;
        value           nonuniform List<scalar> 
81
(
0.293104
0.126579
0.0622888
0.0223443
0.00476434
0.000606268
6.40549e-05
6.60422e-06
7.56623e-07
0.292259
0.134511
0.0686462
0.0263579
0.00622859
0.000841428
8.76181e-05
8.76139e-06
9.65783e-07
0.291578
0.133712
0.068802
0.0268734
0.00658196
0.000937568
0.000101013
1.01641e-05
1.10516e-06
0.291356
0.131999
0.0673517
0.0258988
0.00615737
0.000852282
9.1443e-05
9.28333e-06
1.02469e-06
0.291303
0.130779
0.0660408
0.024823
0.00563426
0.000740233
7.7612e-05
7.86681e-06
8.80361e-07
0.291241
0.129598
0.0647315
0.0237322
0.00516122
0.000655348
6.81696e-05
6.94666e-06
7.90782e-07
0.291046
0.128267
0.0636332
0.0230798
0.00498849
0.000643601
6.9302e-05
7.35238e-06
8.67891e-07
0.290638
0.129271
0.0658937
0.0253759
0.0061216
0.000882315
0.000102189
1.13982e-05
1.37717e-06
0.296072
0.142451
0.0757335
0.0314154
0.00871122
0.00147543
0.000182287
2.02484e-05
2.36338e-06
)
;
    }
    defaultFaces
    {
        type            empty;
    }
}


// ************************************************************************* //
