/*--------------------------------*- C++ -*----------------------------------*\
  =========                 |
  \\      /  F ield         | OpenFOAM: The Open Source CFD Toolbox
   \\    /   O peration     | Website:  https://openfoam.org
    \\  /    A nd           | Version:  11
     \\/     M anipulation  |
\*---------------------------------------------------------------------------*/
FoamFile
{
    format      ascii;
    class       volScalarField;
    location    "33";
    object      nut;
}
// * * * * * * * * * * * * * * * * * * * * * * * * * * * * * * * * * * * * * //

dimensions      [0 2 -1 0 0 0 0];

internalField   nonuniform List<scalar> 
81
(
6.07894e-05
6.07015e-05
6.06305e-05
6.06075e-05
6.0602e-05
6.05956e-05
6.05756e-05
6.05325e-05
6.10957e-05
0.000142414
0.00015133
0.000150423
0.000148495
0.000147128
0.000145811
0.000144318
0.000145428
0.000160231
7.00965e-05
7.72316e-05
7.73969e-05
7.5766e-05
7.43023e-05
7.28442e-05
7.16078e-05
7.41262e-05
8.51545e-05
2.51618e-05
2.96595e-05
3.02274e-05
2.91327e-05
2.79333e-05
2.67181e-05
2.59828e-05
2.85228e-05
3.52799e-05
5.37184e-06
7.01291e-06
7.40234e-06
6.92537e-06
6.34249e-06
5.81461e-06
5.61674e-06
6.86784e-06
9.75001e-06
6.84437e-07
9.48573e-07
1.05452e-06
9.58624e-07
8.33546e-07
7.38643e-07
7.24349e-07
9.87049e-07
1.64157e-06
7.23656e-08
9.88344e-08
1.13691e-07
1.02902e-07
8.74156e-08
7.68306e-08
7.78957e-08
1.13852e-07
2.01681e-07
7.46534e-09
9.88923e-09
1.14529e-08
1.04555e-08
8.86235e-09
7.82651e-09
8.24889e-09
1.26483e-08
2.23021e-08
8.55325e-10
1.09026e-09
1.24557e-09
1.1542e-09
9.9169e-10
8.90331e-10
9.71811e-10
1.52293e-09
2.59386e-09
)
;

boundaryField
{
    inlet
    {
        type            calculated;
        value           uniform 0.000851986;
    }
    outlet
    {
        type            calculated;
        value           nonuniform List<scalar> 9(8.55325e-10 1.09026e-09 1.24557e-09 1.1542e-09 9.9169e-10 8.90331e-10 9.71811e-10 1.52293e-09 2.59386e-09);
    }
    lowerWall
    {
        type            nutkWallFunction;
        Cmu             0.09;
        kappa           0.41;
        E               9.8;
        value           nonuniform List<scalar> 9(2.20957e-06 0 0 0 0 0 0 0 0);
    }
    upperWall
    {
        type            nutkWallFunction;
        Cmu             0.09;
        kappa           0.41;
        E               9.8;
        value           nonuniform List<scalar> 
81
(
2.20957e-06
0
0
0
0
0
0
0
0
2.19548e-06
0
0
0
0
0
0
0
0
2.18413e-06
0
0
0
0
0
0
0
0
2.18043e-06
0
0
0
0
0
0
0
0
2.17954e-06
0
0
0
0
0
0
0
0
2.1785e-06
0
0
0
0
0
0
0
0
2.17524e-06
0
0
0
0
0
0
0
0
2.16842e-06
0
0
0
0
0
0
0
0
2.25882e-06
0
0
0
0
0
0
0
0
)
;
    }
    defaultFaces
    {
        type            empty;
    }
}


// ************************************************************************* //
