/*--------------------------------*- C++ -*----------------------------------*\
  =========                 |
  \\      /  F ield         | OpenFOAM: The Open Source CFD Toolbox
   \\    /   O peration     | Website:  https://openfoam.org
    \\  /    A nd           | Version:  11
     \\/     M anipulation  |
\*---------------------------------------------------------------------------*/
FoamFile
{
    format      ascii;
    class       volScalarField;
    location    "33";
    object      p;
}
// * * * * * * * * * * * * * * * * * * * * * * * * * * * * * * * * * * * * * //

dimensions      [0 2 -2 0 0 0 0];

internalField   nonuniform List<scalar> 
81
(
0.0746934
0.0146917
0.000329385
-0.000924377
9.46122e-05
0.00096495
-0.00142634
-0.0209647
-0.107044
-0.00708276
-0.00179394
-0.00113933
-0.000622203
-3.4983e-06
0.000570114
0.000647266
0.000132355
0.00753938
-0.00386398
-0.000496938
0.000148783
3.03801e-05
-5.58316e-05
-0.000183169
-0.000449137
0.000434292
0.00632024
-0.000716321
4.03508e-05
0.000186117
6.63437e-05
-5.79939e-05
-0.000198875
-0.000355025
-0.000190975
0.000817511
-0.000234831
-5.84423e-06
7.58616e-05
3.15771e-05
-4.60659e-05
-0.000128731
-0.000172497
-5.00011e-05
0.000195845
-0.000143589
-3.01863e-05
2.81687e-05
1.33551e-05
-3.29419e-05
-7.78575e-05
-7.76438e-05
3.11917e-05
0.000183391
-8.05135e-05
-2.53405e-05
9.3143e-06
4.07528e-06
-2.22364e-05
-4.53338e-05
-3.49708e-05
3.6451e-05
0.000122107
-4.02491e-05
-1.6025e-05
1.40726e-06
-1.12834e-07
-1.31188e-05
-2.33863e-05
-1.43978e-05
2.35854e-05
6.33631e-05
-1.22465e-05
-5.54062e-06
-3.67116e-07
-5.92032e-07
-4.32123e-06
-7.03529e-06
-3.56974e-06
8.20625e-06
1.96117e-05
)
;

boundaryField
{
    inlet
    {
        type            zeroGradient;
    }
    outlet
    {
        type            fixedValue;
        value           uniform 0;
    }
    lowerWall
    {
        type            zeroGradient;
    }
    upperWall
    {
        type            zeroGradient;
    }
    defaultFaces
    {
        type            empty;
    }
}


// ************************************************************************* //
