/*--------------------------------*- C++ -*----------------------------------*\
  =========                 |
  \\      /  F ield         | OpenFOAM: The Open Source CFD Toolbox
   \\    /   O peration     | Website:  https://openfoam.org
    \\  /    A nd           | Version:  11
     \\/     M anipulation  |
\*---------------------------------------------------------------------------*/
FoamFile
{
    format      ascii;
    class       surfaceScalarField;
    location    "33";
    object      phi;
}
// * * * * * * * * * * * * * * * * * * * * * * * * * * * * * * * * * * * * * //

dimensions      [0 3 -1 0 0 0 0];

internalField   nonuniform List<scalar> 
144
(
2.6906e-08
-2.68944e-08
6.3918e-09
2.05249e-08
5.613e-10
5.83639e-09
-4.5784e-10
1.02149e-09
-3.91211e-10
-6.94784e-11
1.07126e-09
-1.47866e-09
8.67782e-09
-7.60784e-09
3.85505e-08
-2.98908e-08
3.85274e-08
-9.15864e-09
-1.77163e-08
-8.22866e-10
1.2197e-08
-7.64334e-10
5.78723e-09
-9.55076e-10
1.2086e-09
-8.4791e-10
-2.20899e-10
-1.17768e-10
-2.22501e-09
1.09055e-09
-8.80457e-09
-1.15085e-08
-1.73374e-08
2.70724e-08
-8.63828e-09
-9.08408e-09
-1.39063e-09
4.9546e-09
2.24787e-10
4.16902e-09
1.48727e-10
1.25947e-09
2.60798e-10
-3.48607e-10
4.9362e-10
-2.43453e-09
-1.96817e-09
-6.35085e-09
-1.38316e-08
-5.35547e-09
1.32533e-08
-3.73856e-09
-5.34693e-09
-6.53655e-10
1.86079e-09
5.32018e-10
2.97034e-09
5.80154e-10
1.19833e-09
6.90191e-10
-4.79313e-10
7.44022e-10
-2.48664e-09
-8.79925e-10
-4.64049e-09
-4.90674e-09
-1.31675e-09
8.34829e-09
-2.07271e-09
-3.27898e-09
-7.26216e-10
5.06436e-10
4.04338e-10
1.8282e-09
7.27257e-10
8.61443e-10
7.9198e-10
-5.43316e-10
4.27477e-10
-2.10897e-09
-1.1122e-09
-3.0965e-09
-2.27523e-09
-1.48478e-10
6.07156e-09
-1.40686e-09
-1.87307e-09
-7.61489e-10
-1.43671e-10
1.9705e-10
8.61955e-10
6.17953e-10
4.32534e-10
6.02191e-10
-5.30864e-10
4.06772e-12
-1.50238e-09
-1.40123e-09
-1.68137e-09
-2.02408e-09
4.74112e-10
4.04894e-09
-7.42662e-10
-1.13034e-09
-5.00863e-10
-3.87237e-10
7.7077e-11
2.803e-10
3.84412e-10
1.19336e-10
3.3663e-10
-4.83898e-10
-1.45378e-10
-1.01462e-09
-1.01313e-09
-8.0887e-10
-1.29334e-09
7.57444e-10
2.7566e-09
-3.31041e-10
-7.98905e-10
-2.56662e-10
-4.62087e-10
2.32391e-11
-1.55473e-12
1.93326e-10
-5.29765e-11
1.52893e-10
-4.44973e-10
-1.29183e-10
-7.28974e-10
-5.5054e-10
-3.85685e-10
-6.22164e-10
8.30383e-10
2.13478e-09
-1.07828e-10
-9.13255e-11
4.24838e-12
6.64105e-11
4.81354e-11
-5.9961e-11
-2.05921e-10
-2.20256e-10
)
;

boundaryField
{
    inlet
    {
        type            calculated;
        value           uniform 0;
    }
    outlet
    {
        type            calculated;
        value           nonuniform List<scalar> 9(-6.90956e-10 -4.78852e-10 -9.76157e-11 -1.15927e-10 -4.26557e-10 -6.20708e-10 -2.3939e-10 8.45057e-10 1.91452e-09);
    }
    lowerWall
    {
        type            calculated;
        value           uniform 0;
    }
    upperWall
    {
        type            calculated;
        value           uniform 0;
    }
    defaultFaces
    {
        type            empty;
    }
}


// ************************************************************************* //
