/*--------------------------------*- C++ -*----------------------------------*\
  =========                 |
  \\      /  F ield         | OpenFOAM: The Open Source CFD Toolbox
   \\    /   O peration     | Website:  https://openfoam.org
    \\  /    A nd           | Version:  11
     \\/     M anipulation  |
\*---------------------------------------------------------------------------*/
FoamFile
{
    format      ascii;
    class       volVectorField;
    location    "33";
    object      U;
}
// * * * * * * * * * * * * * * * * * * * * * * * * * * * * * * * * * * * * * //

dimensions      [0 1 -1 0 0 0 0];

internalField   nonuniform List<vector> 
81
(
(0.0136227 -0.206308 0.0339154)
(0.0164624 -0.00474078 0.00650327)
(0.00349282 -0.00092074 0.000146504)
(5.22543e-05 -0.00035547 -0.00041521)
(-0.000424614 6.81867e-05 4.25124e-05)
(0.000340897 0.00059851 0.000433684)
(0.00490659 0.0015072 -0.000637224)
(0.0232805 -0.00493408 -0.00923951)
(-0.0291091 0.252664 -0.0486851)
(-0.00523133 0.0496631 -0.0138065)
(-0.00433399 0.0291768 -0.00243784)
(-0.000794871 0.0103472 -0.00166089)
(-0.000860653 0.00228714 -0.000920135)
(-0.000902653 -0.000238009 3.00987e-05)
(-0.000484351 -0.00344311 0.000880872)
(0.000500077 -0.0139749 0.000994074)
(-0.00453257 -0.0352736 -0.000121725)
(0.006317 -0.0417834 0.0127612)
(-0.00479337 -0.000852076 -0.0110001)
(-0.00453583 0.00889573 -0.00113302)
(-0.000588886 0.00445822 0.000252328)
(0.00018755 0.000971409 3.18581e-05)
(0.000204887 -0.000264729 -0.000117551)
(0.000379009 -0.00203 -0.000380805)
(-0.000767802 -0.00713319 -0.000868749)
(-0.00736093 -0.0129956 0.00109462)
(0.00868419 -0.00591098 0.0161095)
(-0.00200314 -0.0102029 -0.00380067)
(-0.00206375 0.00161837 0.000171753)
(-6.35234e-05 0.00293511 0.000820786)
(0.000556068 0.00107002 0.000306581)
(0.000637196 -0.000405601 -0.000272989)
(0.000720951 -0.00227223 -0.000971154)
(-8.05862e-05 -0.00469656 -0.00170343)
(-0.00277548 -0.000751892 -0.000755568)
(0.00172832 0.0147667 0.00428856)
(-0.00102995 -0.00578822 -0.00210059)
(-0.00140985 0.000713069 -2.70988e-05)
(-0.000160032 0.00238547 0.000692232)
(0.000563764 0.00107813 0.000302856)
(0.000763685 -0.00051341 -0.000426281)
(0.000612271 -0.00235583 -0.00122267)
(-0.000353157 -0.00385204 -0.00162956)
(-0.00166344 5.35197e-06 -0.00048348)
(0.000657951 0.0106732 0.00181654)
(-0.000657063 -0.00237606 -0.00165876)
(-0.00113318 0.000176137 -0.000385882)
(-0.000280461 0.00133275 0.00037581)
(0.000407087 0.00064736 0.000183653)
(0.000612304 -0.000553722 -0.000435398)
(0.000302173 -0.0018275 -0.00103293)
(-0.000701152 -0.00238309 -0.00102243)
(-0.00167444 6.58904e-06 0.000380993)
(0.00145809 0.0047555 0.00250576)
(-0.000342203 -0.00139144 -0.000996303)
(-0.000651009 -0.000301547 -0.000361252)
(-0.000211907 0.000501056 0.000139721)
(0.000231284 0.00024136 6.33112e-05)
(0.000360863 -0.000513227 -0.000320535)
(9.46744e-05 -0.00122659 -0.000652771)
(-0.000579988 -0.00116835 -0.000504274)
(-0.00111121 0.000584347 0.00050881)
(0.00126673 0.00301885 0.00195449)
(-0.000152761 -0.000932933 -0.000506144)
(-0.000306148 -0.000447161 -0.000231789)
(-0.000117184 9.50946e-05 2.40913e-05)
(0.000108639 7.80939e-06 8.66254e-07)
(0.000172988 -0.000463109 -0.000191749)
(1.16701e-05 -0.000838011 -0.000343029)
(-0.000341043 -0.000537933 -0.000214189)
(-0.000561582 0.000814937 0.000335791)
(0.000726771 0.00238289 0.00106148)
(-4.89857e-05 -0.000716619 -0.000178535)
(-0.000104123 -0.000473695 -9.59826e-05)
(-4.39192e-05 -7.53436e-05 -5.48021e-06)
(3.55524e-05 -0.000101173 -9.72422e-06)
(5.71505e-05 -0.000427886 -7.55782e-05)
(-5.82584e-06 -0.000640587 -0.000122897)
(-0.000133558 -0.000271752 -6.41852e-05)
(-0.000202005 0.000836417 0.000141343)
(0.000292974 0.00196291 0.000413757)
)
;

boundaryField
{
    inlet
    {
        type            fixedValue;
        value           uniform (10 0 0);
    }
    outlet
    {
        type            zeroGradient;
    }
    lowerWall
    {
        type            noSlip;
    }
    upperWall
    {
        type            noSlip;
    }
    defaultFaces
    {
        type            empty;
    }
}


// ************************************************************************* //
