/*--------------------------------*- C++ -*----------------------------------*\
| =========                 |                                                 |
| \\      /  F ield         | OpenFOAM: The Open Source CFD Toolbox           |
|  \\    /   O peration     | Version:  2306                                  |
|   \\  /    A nd           | Website:  www.openfoam.com                      |
|    \\/     M anipulation  |                                                 |
\*---------------------------------------------------------------------------*/
FoamFile
{
    version     2.0;
    format      ascii;
    arch        "LSB;label=32;scalar=64";
    class       volScalarField;
    location    "4.9";
    object      p;
}
// * * * * * * * * * * * * * * * * * * * * * * * * * * * * * * * * * * * * * //

dimensions      [0 2 -2 0 0 0 0];

internalField   nonuniform List<scalar> 
288632
(
70.6681
70.6597
70.6728
70.6988
70.7343
70.776
70.8315
70.8764
70.9418
70.9757
71.0452
71.0668
71.0953
-2.84495
-2.6991
-2.66849
-2.35969
-2.21503
-1.91085
-1.65351
-1.36607
-1.06842
-0.765629
-0.460261
-0.153654
70.6613
70.6583
70.6723
70.6985
70.7341
70.776
70.8316
70.8769
70.9425
70.9769
71.0458
71.0671
71.0963
-2.8456
-2.69983
-2.66976
-2.36072
-2.21607
-1.91185
-1.65434
-1.36679
-1.069
-0.766049
-0.460516
-0.153741
70.6594
70.6573
70.6715
70.6978
70.7336
70.7757
70.8316
70.8774
70.9434
70.9789
71.0479
71.0691
71.099
-2.84771
-2.7024
-2.67239
-2.36304
-2.21834
-1.91385
-1.65611
-1.36829
-1.07019
-0.766917
-0.461044
-0.153919
70.6558
70.6554
70.6703
70.6967
70.7328
70.7753
70.8314
70.8781
70.9446
70.9817
71.0505
71.0727
71.1028
-2.85119
-2.70603
-2.67629
-2.36647
-2.22173
-1.91681
-1.65875
-1.37053
-1.07198
-0.768218
-0.461835
-0.154186
70.6533
70.6535
70.6687
70.6954
70.7318
70.7747
70.8311
70.8788
70.9461
70.9852
71.0541
71.0774
71.1079
-2.85598
-2.71096
-2.68142
-2.37101
-2.22622
-1.9207
-1.66224
-1.37348
-1.07433
-0.769933
-0.462879
-0.154538
70.6508
70.6513
70.6669
70.6938
70.7305
70.7739
70.8307
70.8796
70.948
70.9894
71.0586
71.0833
71.1142
-2.86195
-2.71694
-2.68766
-2.37656
-2.23169
-1.92545
-1.66652
-1.37709
-1.07722
-0.772039
-0.464161
-0.154971
70.6484
70.6491
70.6649
70.692
70.729
70.7729
70.8303
70.8806
70.9502
70.9943
71.0641
71.0904
71.1218
-2.86899
-2.72396
-2.69492
-2.38304
-2.23809
-1.93101
-1.67152
-1.38133
-1.0806
-0.774507
-0.465664
-0.155479
70.6459
70.6468
70.6627
70.69
70.7273
70.7719
70.8298
70.8817
70.9527
70.9999
71.0707
71.0988
71.1308
-2.87697
-2.73182
-2.70305
-2.39034
-2.2453
-1.93728
-1.67717
-1.38611
-1.08443
-0.7773
-0.467366
-0.156055
70.6434
70.6444
70.6604
70.6879
70.7255
70.7707
70.8293
70.8829
70.9556
71.0063
71.0783
71.1085
71.1413
-2.88572
-2.74043
-2.71194
-2.39832
-2.2532
-1.94416
-1.68338
-1.39138
-1.08865
-0.78038
-0.469244
-0.15669
70.641
70.642
70.6581
70.6857
70.7236
70.7694
70.8287
70.8843
70.9589
71.0133
71.0872
71.1196
71.1533
-2.89509
-2.7496
-2.7214
-2.40687
-2.26166
-1.95154
-1.69006
-1.39704
-1.09319
-0.7837
-0.471269
-0.157375
70.6386
70.6396
70.6557
70.6834
70.7216
70.7681
70.8282
70.8858
70.9625
71.021
71.0972
71.1321
71.167
-2.9049
-2.75918
-2.7313
-2.41583
-2.27054
-1.95931
-1.6971
-1.40302
-1.09799
-0.787211
-0.473412
-0.158101
70.6362
70.6372
70.6533
70.6811
70.7196
70.7668
70.8278
70.8874
70.9666
71.0294
71.1084
71.1461
71.1825
-2.915
-2.76901
-2.74146
-2.42506
-2.27971
-1.96734
-1.70439
-1.40923
-1.10297
-0.790858
-0.475639
-0.158855
70.634
70.6349
70.651
70.6788
70.7176
70.7655
70.8274
70.8892
70.971
71.0385
71.1209
71.1617
71.1998
-2.92519
-2.77892
-2.7517
-2.4344
-2.28901
-1.97551
-1.71182
-1.41555
-1.10806
-0.794585
-0.477916
-0.159627
70.6318
70.6328
70.6487
70.6766
70.7156
70.7642
70.8271
70.8912
70.9758
71.0483
71.1346
71.1788
71.2188
-2.93533
-2.78875
-2.76187
-2.44371
-2.29828
-1.98368
-1.71926
-1.4219
-1.11317
-0.798332
-0.480207
-0.160404
70.6298
70.6307
70.6466
70.6745
70.7137
70.763
70.8269
70.8934
70.9809
71.0586
71.1495
71.1972
71.2396
-2.94523
-2.79835
-2.77181
-2.45283
-2.3074
-1.99171
-1.72659
-1.42816
-1.11822
-0.802039
-0.482475
-0.161174
70.628
70.6288
70.6446
70.6725
70.7119
70.7618
70.8268
70.8956
70.9862
71.0692
71.1652
71.2168
71.2618
-2.95476
-2.80756
-2.78135
-2.46162
-2.31619
-1.99949
-1.7337
-1.43425
-1.12313
-0.805646
-0.484683
-0.161924
70.6265
70.6271
70.6428
70.6707
70.7103
70.7608
70.8268
70.898
70.9917
71.0801
71.1816
71.2372
71.2852
-2.96376
-2.81625
-2.79035
-2.46995
-2.32454
-2.00689
-1.74048
-1.44005
-1.12782
-0.809093
-0.486795
-0.162641
70.6253
70.6257
70.6412
70.6691
70.7088
70.7598
70.8269
70.9004
70.9972
71.0909
71.1982
71.2579
71.3092
-2.97212
-2.82429
-2.79869
-2.47769
-2.33231
-2.01379
-1.7468
-1.44548
-1.13221
-0.812322
-0.488774
-0.163314
70.6243
70.6246
70.6398
70.6676
70.7074
70.759
70.8271
70.9028
71.0026
71.1014
71.2145
71.2784
71.3331
-2.97972
-2.83159
-2.80623
-2.48473
-2.33938
-2.02008
-1.75258
-1.45044
-1.13623
-0.81528
-0.490588
-0.163931
70.6238
70.6237
70.6387
70.6664
70.7063
70.7583
70.8274
70.9051
71.0076
71.1113
71.23
71.2981
71.3563
-2.98646
-2.83802
-2.81288
-2.49095
-2.34564
-2.02566
-1.75772
-1.45486
-1.1398
-0.817916
-0.492205
-0.164481
70.6239
70.6232
70.6378
70.6654
70.7054
70.7578
70.8276
70.9072
71.0122
71.1201
71.2441
71.3162
71.3778
-2.99226
-2.84354
-2.81855
-2.49629
-2.35101
-2.03044
-1.76213
-1.45865
-1.14288
-0.820185
-0.493597
-0.164955
70.6238
70.6228
70.6372
70.6646
70.7046
70.7574
70.8279
70.909
71.0161
71.1276
71.2562
71.332
71.3967
-2.99705
-2.84803
-2.82316
-2.50064
-2.35539
-2.03435
-1.76575
-1.46177
-1.14541
-0.822048
-0.494742
-0.165344
70.6262
70.6232
70.6368
70.6641
70.7041
70.7571
70.8281
70.9104
71.0192
71.1335
71.2656
71.3448
71.4122
-3.00078
-2.85156
-2.82667
-2.50398
-2.35876
-2.03734
-1.76852
-1.46415
-1.14734
-0.823475
-0.495618
-0.165642
70.627
70.623
70.6364
70.6637
70.7037
70.7568
70.8282
70.9113
71.0213
71.1376
71.2719
71.3541
71.4234
-3.0034
-2.85379
-2.82903
-2.50623
-2.36104
-2.03933
-1.7704
-1.46576
-1.14865
-0.82444
-0.49621
-0.165843
70.633
70.6239
70.6364
70.6637
70.7037
70.7569
70.8284
70.9119
71.0225
71.1398
71.2754
71.3584
71.43
-3.0048
-2.85539
-2.83023
-2.50743
-2.36225
-2.04031
-1.77138
-1.46657
-1.14931
-0.824929
-0.496509
-0.165944
70.6593
70.6562
70.6701
70.6962
70.7317
70.7733
70.8287
70.8738
70.939
70.9732
71.0419
71.0641
71.0938
-2.85345
-2.70867
-2.67772
-2.36691
-2.22074
-1.91532
-1.65642
-1.36793
-1.06949
-0.766162
-0.460476
-0.153692
70.6526
70.6546
70.6696
70.6959
70.7315
70.7733
70.8289
70.8743
70.9396
70.975
71.0411
71.0646
71.0951
-2.85406
-2.70943
-2.67903
-2.36796
-2.2218
-1.91634
-1.65728
-1.36867
-1.07008
-0.76659
-0.460737
-0.153781
70.6506
70.6536
70.6689
70.6952
70.731
70.7731
70.8288
70.8747
70.9404
70.977
71.043
71.0667
71.0979
-2.8562
-2.71205
-2.68171
-2.37033
-2.22412
-1.91837
-1.65907
-1.37019
-1.07129
-0.767474
-0.461273
-0.153962
70.6472
70.6517
70.6676
70.6941
70.7302
70.7726
70.8286
70.8753
70.9416
70.9798
71.0453
71.0702
71.1018
-2.85974
-2.71575
-2.68569
-2.37382
-2.22757
-1.92139
-1.66176
-1.37247
-1.07311
-0.768797
-0.462078
-0.154234
70.6448
70.6496
70.6661
70.6927
70.7291
70.7719
70.8283
70.876
70.943
70.9833
71.0487
71.0748
71.1069
-2.8646
-2.72077
-2.69092
-2.37845
-2.23214
-1.92535
-1.66531
-1.37547
-1.0755
-0.770541
-0.46314
-0.154592
70.6424
70.6475
70.6642
70.6911
70.7277
70.7711
70.8278
70.8767
70.9448
70.9873
71.0531
71.0806
71.1131
-2.87066
-2.72686
-2.69728
-2.3841
-2.23772
-1.93019
-1.66967
-1.37915
-1.07844
-0.772685
-0.464445
-0.155033
70.6399
70.6453
70.6622
70.6892
70.7262
70.77
70.8273
70.8776
70.9469
70.9921
71.0585
71.0876
71.1207
-2.8778
-2.73401
-2.70468
-2.3907
-2.24424
-1.93585
-1.67476
-1.38346
-1.08189
-0.775197
-0.465975
-0.15555
70.6373
70.643
70.66
70.6872
70.7244
70.7689
70.8267
70.8785
70.9492
70.9975
71.0648
71.0959
71.1296
-2.88588
-2.742
-2.71297
-2.39812
-2.25158
-1.94223
-1.68051
-1.38833
-1.08578
-0.778042
-0.467709
-0.156137
70.6348
70.6407
70.6576
70.685
70.7226
70.7676
70.826
70.8795
70.9519
71.0035
71.0722
71.1055
71.14
-2.89475
-2.75076
-2.72202
-2.40626
-2.25963
-1.94924
-1.68684
-1.39369
-1.09008
-0.781179
-0.469622
-0.156784
70.6323
70.6383
70.6553
70.6828
70.7206
70.7663
70.8254
70.8807
70.955
71.0101
71.0807
71.1164
71.1519
-2.90424
-2.76008
-2.73167
-2.41496
-2.26825
-1.95676
-1.69364
-1.39947
-1.09471
-0.784562
-0.471686
-0.157482
70.6299
70.6359
70.6529
70.6805
70.7185
70.7649
70.8247
70.8819
70.9584
71.0174
71.0903
71.1286
71.1655
-2.91418
-2.76982
-2.74175
-2.42408
-2.2773
-1.96468
-1.70082
-1.40557
-1.0996
-0.788141
-0.47387
-0.158222
70.6275
70.6335
70.6504
70.6781
70.7164
70.7634
70.8241
70.8833
70.9621
71.0253
71.101
71.1424
71.1807
-2.9244
-2.77981
-2.75208
-2.43347
-2.28664
-1.97287
-1.70825
-1.41189
-1.10468
-0.79186
-0.476142
-0.158992
70.6252
70.6312
70.6481
70.6758
70.7143
70.7619
70.8235
70.8848
70.9661
71.0339
71.1129
71.1576
71.1977
-2.93472
-2.78987
-2.76251
-2.44298
-2.29612
-1.98119
-1.71581
-1.41834
-1.10987
-0.795661
-0.478465
-0.15978
70.6231
70.629
70.6458
70.6735
70.7123
70.7605
70.8229
70.8864
70.9705
71.043
71.1259
71.1743
71.2165
-2.94496
-2.79985
-2.77286
-2.45245
-2.30557
-1.98951
-1.7234
-1.42482
-1.11508
-0.799485
-0.480804
-0.160573
70.6211
70.6269
70.6436
70.6714
70.7103
70.7591
70.8225
70.8882
70.9752
71.0525
71.1399
71.1923
71.237
-2.95498
-2.80958
-2.78296
-2.46172
-2.31486
-1.99771
-1.73088
-1.43121
-1.12024
-0.80327
-0.48312
-0.16136
70.6193
70.625
70.6416
70.6693
70.7084
70.7578
70.8222
70.8901
70.9801
71.0625
71.1547
71.2114
71.2589
-2.9646
-2.81891
-2.79266
-2.47067
-2.32382
-2.00564
-1.73813
-1.43742
-1.12525
-0.806953
-0.485376
-0.162126
70.6177
70.6233
70.6398
70.6674
70.7066
70.7566
70.822
70.8921
70.9851
71.0725
71.1702
71.2314
71.282
-2.97369
-2.82772
-2.80181
-2.47913
-2.33233
-2.01318
-1.74504
-1.44335
-1.13004
-0.810474
-0.487533
-0.162859
70.6165
70.6219
70.6381
70.6657
70.705
70.7555
70.8219
70.8942
70.9902
71.0825
71.1859
71.2517
71.3058
-2.98213
-2.83586
-2.81027
-2.487
-2.34024
-2.02021
-1.7515
-1.44889
-1.13453
-0.813773
-0.489556
-0.163547
70.6156
70.6207
70.6367
70.6642
70.7036
70.7545
70.8218
70.8962
70.9951
71.0922
71.2013
71.2719
71.3295
-2.98979
-2.84324
-2.81793
-2.49415
-2.34744
-2.02662
-1.75739
-1.45395
-1.13863
-0.816795
-0.49141
-0.164178
70.615
70.6199
70.6356
70.6629
70.7024
70.7537
70.8219
70.8982
70.9997
71.1013
71.2159
71.2912
71.3524
-2.99658
-2.84974
-2.82467
-2.50047
-2.35381
-2.0323
-1.76263
-1.45846
-1.14228
-0.819489
-0.493063
-0.16474
70.6151
70.6193
70.6347
70.6619
70.7014
70.7531
70.822
70.9
71.0039
71.1095
71.2292
71.309
71.3738
-3.00242
-2.85532
-2.83042
-2.50589
-2.35928
-2.03718
-1.76713
-1.46234
-1.14543
-0.821809
-0.494487
-0.165225
70.615
70.619
70.634
70.6611
70.7006
70.7526
70.8221
70.9015
71.0075
71.1164
71.2406
71.3245
71.3926
-3.00725
-2.85986
-2.83509
-2.51031
-2.36374
-2.04117
-1.77082
-1.46552
-1.14801
-0.823714
-0.495657
-0.165624
70.6173
70.6193
70.6336
70.6605
70.7001
70.7522
70.8222
70.9027
71.0103
71.1218
71.2495
71.337
71.4079
-3.01101
-2.86341
-2.83864
-2.5137
-2.36717
-2.04421
-1.77365
-1.46795
-1.14999
-0.825173
-0.496553
-0.165928
70.6181
70.6191
70.6332
70.6601
70.6996
70.7519
70.8222
70.9035
71.0123
71.1257
71.2552
71.3458
71.419
-3.01364
-2.86567
-2.84103
-2.51598
-2.36948
-2.04624
-1.77557
-1.46959
-1.15132
-0.826159
-0.497159
-0.166134
70.6241
70.6201
70.6332
70.6601
70.6996
70.7519
70.8223
70.904
71.0134
71.1279
71.2585
71.3487
71.4251
-3.01506
-2.86727
-2.84224
-2.51719
-2.37071
-2.04723
-1.77656
-1.47042
-1.152
-0.826658
-0.497464
-0.166237
70.6531
70.6508
70.6649
70.6908
70.7262
70.7677
70.8228
70.8679
70.933
70.9678
71.0361
71.059
71.0898
-2.87294
-2.72863
-2.69595
-2.38117
-2.23187
-1.92376
-1.66188
-1.37129
-1.07132
-0.766991
-0.460737
-0.153696
70.6465
70.6492
70.6644
70.6904
70.726
70.7677
70.823
70.8684
70.9335
70.9696
71.0351
71.0596
71.0913
-2.87358
-2.72943
-2.6973
-2.38227
-2.23298
-1.92482
-1.66277
-1.37205
-1.07193
-0.767434
-0.461006
-0.153787
70.6446
70.6481
70.6636
70.6897
70.7254
70.7674
70.8228
70.8688
70.9343
70.9716
71.037
71.0617
71.0941
-2.8758
-2.73215
-2.70009
-2.38472
-2.23538
-1.92692
-1.66463
-1.37363
-1.07319
-0.768347
-0.461561
-0.153975
70.6412
70.6461
70.6623
70.6886
70.7246
70.7668
70.8225
70.8692
70.9353
70.9742
71.0393
71.065
71.098
-2.87946
-2.736
-2.70423
-2.38834
-2.23896
-1.93004
-1.66741
-1.37598
-1.07506
-0.769715
-0.462392
-0.154256
70.6386
70.6441
70.6607
70.6872
70.7234
70.766
70.8221
70.8697
70.9366
70.9775
71.0425
71.0694
71.1029
-2.88449
-2.74121
-2.70967
-2.39314
-2.2437
-1.93414
-1.67109
-1.37909
-1.07754
-0.77152
-0.463491
-0.154627
70.636
70.642
70.6588
70.6855
70.722
70.7651
70.8215
70.8703
70.9381
70.9813
71.0466
71.075
71.109
-2.89076
-2.74754
-2.71628
-2.39899
-2.24949
-1.93916
-1.6756
-1.3829
-1.08059
-0.773738
-0.464842
-0.155083
70.6334
70.6398
70.6568
70.6836
70.7203
70.7639
70.8208
70.8709
70.9399
70.9857
71.0515
71.0817
71.1162
-2.89813
-2.75495
-2.72397
-2.40584
-2.25625
-1.94503
-1.68087
-1.38736
-1.08415
-0.776339
-0.466427
-0.155619
70.6309
70.6375
70.6545
70.6815
70.7185
70.7626
70.82
70.8715
70.9419
70.9906
71.0574
71.0895
71.1248
-2.90647
-2.76324
-2.73258
-2.41353
-2.26387
-1.95164
-1.68683
-1.39241
-1.08819
-0.779288
-0.468224
-0.156227
70.6284
70.6351
70.6522
70.6793
70.7165
70.7612
70.8191
70.8722
70.9442
70.996
71.0641
71.0984
71.1346
-2.91561
-2.7723
-2.74198
-2.42196
-2.27222
-1.95891
-1.6934
-1.39798
-1.09265
-0.782541
-0.470208
-0.156898
70.6259
70.6326
70.6497
70.677
70.7144
70.7596
70.8181
70.8729
70.9467
71.002
71.0718
71.1085
71.1459
-2.92539
-2.78195
-2.75199
-2.43097
-2.28117
-1.96672
-1.70045
-1.40397
-1.09745
-0.786053
-0.472351
-0.157624
70.6234
70.6302
70.6473
70.6745
70.7122
70.758
70.8171
70.8736
70.9495
71.0084
71.0803
71.1198
71.1585
-2.93562
-2.79202
-2.76244
-2.44042
-2.29057
-1.97494
-1.7079
-1.4103
-1.10253
-0.78977
-0.474621
-0.158393
70.621
70.6277
70.6448
70.6721
70.7099
70.7562
70.8161
70.8744
70.9525
71.0153
71.0899
71.1323
71.1727
-2.94613
-2.80234
-2.77315
-2.45015
-2.30027
-1.98344
-1.71562
-1.41688
-1.10781
-0.793636
-0.476983
-0.159194
70.6187
70.6254
70.6423
70.6697
70.7076
70.7545
70.8151
70.8753
70.9558
71.0227
71.1004
71.146
71.1885
-2.95673
-2.81273
-2.78395
-2.46
-2.31011
-1.99208
-1.72348
-1.42358
-1.11321
-0.797591
-0.479401
-0.160014
70.6165
70.6231
70.64
70.6673
70.7054
70.7528
70.8141
70.8762
70.9593
71.0305
71.1118
71.1609
71.2058
-2.96724
-2.82302
-2.79466
-2.4698
-2.31993
-2.00073
-1.73136
-1.43032
-1.11864
-0.801572
-0.481837
-0.160841
70.6145
70.621
70.6377
70.665
70.7032
70.7511
70.8132
70.8772
70.9631
71.0386
71.1241
71.177
71.2246
-2.9775
-2.83304
-2.80511
-2.4794
-2.32957
-2.00924
-1.73914
-1.43698
-1.12401
-0.805514
-0.48425
-0.161661
70.6127
70.619
70.6356
70.6628
70.7011
70.7494
70.8124
70.8784
70.967
71.0469
71.137
71.194
71.2448
-2.98734
-2.84265
-2.81512
-2.48865
-2.33888
-2.01749
-1.74669
-1.44345
-1.12923
-0.809354
-0.486602
-0.16246
70.6111
70.6173
70.6337
70.6608
70.6991
70.7479
70.8117
70.8796
70.971
71.0554
71.1505
71.2117
71.2659
-2.99663
-2.85169
-2.82457
-2.4974
-2.3477
-2.02532
-1.75388
-1.44962
-1.13422
-0.813026
-0.488854
-0.163226
70.6098
70.6158
70.632
70.659
70.6974
70.7465
70.8111
70.8809
70.975
71.0638
71.1641
71.2297
71.2877
-3.00524
-2.86005
-2.83329
-2.50553
-2.35591
-2.03263
-1.76059
-1.4554
-1.1389
-0.816469
-0.490966
-0.163945
70.6088
70.6146
70.6306
70.6574
70.6958
70.7453
70.8107
70.8821
70.979
71.072
71.1775
71.2474
71.3094
-3.01305
-2.86762
-2.84118
-2.51291
-2.36338
-2.03929
-1.76673
-1.46068
-1.14318
-0.819624
-0.492902
-0.164604
70.6083
70.6137
70.6294
70.656
70.6944
70.7442
70.8103
70.8834
70.9827
71.0796
71.1902
71.2645
71.3304
-3.01996
-2.87428
-2.84812
-2.51943
-2.36999
-2.04519
-1.77218
-1.46538
-1.147
-0.822437
-0.49463
-0.165193
70.6083
70.6132
70.6284
70.6549
70.6933
70.7433
70.81
70.8846
70.986
71.0864
71.2017
71.2801
71.3499
-3.02589
-2.87999
-2.85404
-2.52502
-2.37566
-2.05026
-1.77687
-1.46942
-1.15028
-0.82486
-0.496119
-0.1657
70.6081
70.6128
70.6277
70.654
70.6923
70.7426
70.8098
70.8856
70.9889
71.0922
71.2115
71.2936
71.3669
-3.03079
-2.88463
-2.85884
-2.52958
-2.38029
-2.0544
-1.78071
-1.47274
-1.15298
-0.826851
-0.497342
-0.166117
70.6105
70.6132
70.6273
70.6534
70.6917
70.742
70.8097
70.8864
70.9911
71.0967
71.2191
71.3046
71.3809
-3.03461
-2.88826
-2.86249
-2.53307
-2.38384
-2.05756
-1.78365
-1.47528
-1.15504
-0.828375
-0.498279
-0.166436
70.6112
70.613
70.6268
70.6529
70.6912
70.7417
70.8095
70.8869
70.9927
71.0999
71.2238
71.3126
71.3909
-3.03727
-2.89057
-2.86494
-2.53541
-2.38624
-2.05967
-1.78565
-1.47699
-1.15643
-0.829406
-0.498913
-0.166652
70.6172
70.6139
70.6268
70.6529
70.6911
70.7416
70.8095
70.8872
70.9936
71.1018
71.2263
71.3169
71.3963
-3.0387
-2.8922
-2.86618
-2.53666
-2.38751
-2.0607
-1.78668
-1.47785
-1.15714
-0.829927
-0.499232
-0.16676
70.6435
70.6425
70.6569
70.6827
70.7179
70.7592
70.8139
70.859
70.9239
70.9594
71.0269
71.0515
71.0828
-2.90395
-2.7584
-2.72324
-2.40245
-2.24843
-1.93619
-1.66986
-1.3761
-1.07387
-0.768068
-0.461015
-0.153656
70.6369
70.6409
70.6564
70.6823
70.7177
70.7591
70.814
70.8594
70.9243
70.9613
71.0256
71.0519
71.0843
-2.90465
-2.75928
-2.72468
-2.40362
-2.2496
-1.9373
-1.67079
-1.3769
-1.0745
-0.768532
-0.461295
-0.153751
70.635
70.6398
70.6556
70.6816
70.7171
70.7587
70.8138
70.8597
70.925
70.9631
71.0275
71.0538
71.0871
-2.907
-2.76216
-2.72763
-2.4062
-2.25213
-1.93952
-1.67275
-1.37855
-1.07582
-0.769489
-0.461877
-0.153947
70.6315
70.6378
70.6543
70.6804
70.7161
70.7581
70.8134
70.86
70.9258
70.9656
71.0294
71.057
71.0908
-2.91087
-2.76623
-2.73202
-2.41002
-2.2559
-1.9428
-1.67568
-1.38103
-1.07779
-0.770925
-0.46275
-0.154242
70.6289
70.6358
70.6527
70.679
70.7149
70.7572
70.8128
70.8603
70.9268
70.9685
71.0322
71.0611
71.0955
-2.91617
-2.77174
-2.73777
-2.41508
-2.2609
-1.94712
-1.67954
-1.38429
-1.0804
-0.772821
-0.463904
-0.154632
70.6263
70.6337
70.6508
70.6772
70.7134
70.7561
70.8119
70.8605
70.928
70.9719
71.0358
71.0663
71.1012
-2.92277
-2.77841
-2.74477
-2.42125
-2.26701
-1.95241
-1.68428
-1.3883
-1.0836
-0.775153
-0.465324
-0.155112
70.6237
70.6314
70.6486
70.6753
70.7116
70.7547
70.811
70.8607
70.9294
70.9758
71.0402
71.0725
71.1079
-2.93053
-2.78623
-2.7529
-2.42845
-2.27415
-1.95859
-1.68983
-1.393
-1.08735
-0.77789
-0.466992
-0.155676
70.6212
70.629
70.6463
70.6731
70.7096
70.7532
70.8098
70.8609
70.9309
70.98
71.0452
71.0796
71.1157
-2.93929
-2.79496
-2.76201
-2.43656
-2.28219
-1.96556
-1.69612
-1.39832
-1.09161
-0.780995
-0.468885
-0.156317
70.6186
70.6265
70.6439
70.6707
70.7074
70.7515
70.8086
70.861
70.9325
70.9845
71.0509
71.0875
71.1246
-2.94889
-2.8045
-2.77194
-2.44544
-2.29101
-1.97323
-1.70303
-1.40419
-1.0963
-0.784426
-0.470978
-0.157026
70.6161
70.624
70.6414
70.6682
70.7051
70.7496
70.8072
70.8611
70.9342
70.9893
71.0573
71.0964
71.1346
-2.95913
-2.81465
-2.78251
-2.45494
-2.30047
-1.98147
-1.71048
-1.41052
-1.10137
-0.788133
-0.473241
-0.157792
70.6136
70.6215
70.6388
70.6657
70.7026
70.7476
70.8057
70.861
70.9361
70.9944
71.0642
71.1061
71.1456
-2.96984
-2.82522
-2.79353
-2.46489
-2.3104
-1.99015
-1.71834
-1.41721
-1.10674
-0.792062
-0.475641
-0.158606
70.6111
70.619
70.6362
70.6631
70.7001
70.7455
70.8041
70.861
70.938
70.9997
71.0718
71.1166
71.1578
-2.98081
-2.83604
-2.80483
-2.47513
-2.32065
-1.99913
-1.7265
-1.42416
-1.11233
-0.796152
-0.478141
-0.159454
70.6088
70.6166
70.6337
70.6605
70.6976
70.7433
70.8025
70.8608
70.9401
71.0052
71.0799
71.1279
71.171
-2.99186
-2.84691
-2.8162
-2.48549
-2.33104
-2.00826
-1.73482
-1.43126
-1.11805
-0.800342
-0.480704
-0.160324
70.6065
70.6142
70.6312
70.6579
70.695
70.7411
70.8009
70.8607
70.9423
71.0108
71.0887
71.14
71.1854
-3.0028
-2.85766
-2.82746
-2.4958
-2.34142
-2.01741
-1.74316
-1.4384
-1.1238
-0.804563
-0.483288
-0.161202
70.6045
70.612
70.6288
70.6554
70.6926
70.739
70.7993
70.8606
70.9445
71.0166
71.0979
71.1529
71.201
-3.01345
-2.86812
-2.83843
-2.5059
-2.3516
-2.02641
-1.7514
-1.44546
-1.1295
-0.808748
-0.485851
-0.162074
70.6026
70.61
70.6266
70.6531
70.6902
70.7369
70.7977
70.8605
70.9469
71.0225
71.1076
71.1665
71.2175
-3.02365
-2.87813
-2.84894
-2.51561
-2.36144
-2.03513
-1.75939
-1.45232
-1.13504
-0.812827
-0.488352
-0.162925
70.601
70.6082
70.6246
70.6509
70.6879
70.7349
70.7963
70.8605
70.9493
71.0284
71.1177
71.1806
71.2348
-3.03325
-2.88753
-2.85882
-2.5248
-2.37076
-2.04341
-1.76701
-1.45888
-1.14035
-0.816731
-0.490747
-0.16374
70.5996
70.6067
70.6229
70.6489
70.6859
70.733
70.795
70.8606
70.9518
71.0342
71.1278
71.1948
71.2525
-3.04213
-2.89621
-2.86795
-2.53333
-2.37943
-2.05114
-1.77413
-1.46501
-1.14532
-0.820394
-0.492996
-0.164506
70.5986
70.6055
70.6213
70.6472
70.684
70.7313
70.7938
70.8607
70.9542
71.0398
71.1377
71.2088
71.2701
-3.05016
-2.90405
-2.87619
-2.54107
-2.38731
-2.05819
-1.78063
-1.47062
-1.14987
-0.823753
-0.49506
-0.16521
70.598
70.6045
70.62
70.6456
70.6824
70.7299
70.7928
70.8609
70.9564
71.045
71.1469
71.222
71.2869
-3.05726
-2.91093
-2.88343
-2.5479
-2.39428
-2.06443
-1.78642
-1.47562
-1.15393
-0.82675
-0.496902
-0.165838
70.598
70.6039
70.619
70.6444
70.6811
70.7286
70.792
70.8611
70.9584
71.0497
71.1553
71.2341
71.3024
-3.06334
-2.91682
-2.88959
-2.55375
-2.40026
-2.06979
-1.79139
-1.47992
-1.15743
-0.829333
-0.49849
-0.16638
70.5978
70.6036
70.6182
70.6434
70.68
70.7276
70.7913
70.8613
70.9601
71.0536
71.1622
71.2444
71.3157
-3.06835
-2.9216
-2.89459
-2.55851
-2.40514
-2.07417
-1.79546
-1.48345
-1.1603
-0.831455
-0.499796
-0.166826
70.6001
70.6039
70.6177
70.6427
70.6792
70.7269
70.7908
70.8615
70.9614
71.0565
71.1674
71.2526
71.3264
-3.07225
-2.92533
-2.89838
-2.56216
-2.40888
-2.0775
-1.79858
-1.48615
-1.1625
-0.833081
-0.500796
-0.167167
70.6009
70.6037
70.6173
70.6422
70.6786
70.7263
70.7904
70.8615
70.9623
71.0586
71.1705
71.2581
71.3339
-3.07496
-2.92769
-2.90093
-2.5646
-2.4114
-2.07974
-1.80069
-1.48797
-1.16399
-0.83418
-0.501473
-0.167398
70.6068
70.6046
70.6172
70.6421
70.6785
70.7262
70.7903
70.8616
70.9629
71.06
71.172
71.2599
71.3378
-3.07641
-2.92934
-2.90221
-2.56589
-2.41274
-2.08083
-1.80178
-1.48889
-1.16474
-0.834737
-0.501815
-0.167513
70.6325
70.6321
70.6466
70.672
70.7069
70.7478
70.802
70.8471
70.9116
70.948
71.0147
71.0408
71.0728
-2.94652
-2.79837
-2.75977
-2.43072
-2.27031
-1.95245
-1.68014
-1.38215
-1.07694
-0.769251
-0.461216
-0.15354
70.6259
70.6306
70.6461
70.6717
70.7066
70.7477
70.802
70.8474
70.912
70.9498
71.0132
71.0412
71.0743
-2.9473
-2.79936
-2.76131
-2.43198
-2.27156
-1.95364
-1.68114
-1.383
-1.07762
-0.769742
-0.461513
-0.15364
70.624
70.6294
70.6452
70.6709
70.706
70.7472
70.8017
70.8475
70.9124
70.9514
71.0149
71.043
71.077
-2.94984
-2.80245
-2.76449
-2.43474
-2.27427
-1.956
-1.68322
-1.38476
-1.07901
-0.770759
-0.46213
-0.153848
70.6204
70.6274
70.6438
70.6697
70.7049
70.7465
70.8011
70.8476
70.913
70.9536
71.0164
71.0458
71.0804
-2.95401
-2.80684
-2.76921
-2.43883
-2.27831
-1.9595
-1.68634
-1.38739
-1.08111
-0.772285
-0.463058
-0.154161
70.6178
70.6254
70.6422
70.6682
70.7036
70.7454
70.8003
70.8476
70.9137
70.9562
71.0188
71.0496
71.0847
-2.9597
-2.81275
-2.7754
-2.44424
-2.28366
-1.96412
-1.69046
-1.39087
-1.08388
-0.774303
-0.464286
-0.154576
70.6152
70.6231
70.6402
70.6663
70.7019
70.7441
70.7992
70.8474
70.9144
70.9591
71.0218
71.0542
71.0899
-2.96677
-2.81991
-2.78292
-2.45084
-2.29021
-1.96976
-1.69552
-1.39515
-1.08729
-0.776788
-0.4658
-0.155088
70.6126
70.6208
70.638
70.6642
70.7
70.7425
70.7979
70.8472
70.9152
70.9622
71.0252
71.0595
71.0958
-2.97507
-2.82828
-2.79167
-2.45855
-2.29786
-1.97637
-1.70145
-1.40016
-1.0913
-0.779708
-0.46758
-0.15569
70.61
70.6183
70.6356
70.6619
70.6978
70.7406
70.7963
70.8467
70.916
70.9654
71.0292
71.0655
71.1025
-2.98444
-2.83763
-2.80145
-2.46723
-2.30648
-1.98383
-1.70817
-1.40585
-1.09585
-0.783026
-0.469603
-0.156375
70.6074
70.6157
70.6331
70.6594
70.6953
70.7386
70.7946
70.8461
70.9167
70.9687
71.0334
71.072
71.1099
-2.99467
-2.84782
-2.81211
-2.47672
-2.31594
-1.99205
-1.71557
-1.41213
-1.10087
-0.786696
-0.471843
-0.157134
70.6048
70.6132
70.6304
70.6567
70.6927
70.7363
70.7926
70.8453
70.9174
70.972
71.0378
71.0789
71.1179
-3.00558
-2.85865
-2.82345
-2.48687
-2.32608
-2.00087
-1.72355
-1.41891
-1.10631
-0.790668
-0.474268
-0.157957
70.6023
70.6106
70.6277
70.654
70.69
70.7338
70.7904
70.8442
70.918
70.9751
71.0423
71.086
71.1263
-3.01696
-2.86991
-2.83527
-2.49751
-2.33674
-2.01018
-1.73198
-1.42609
-1.11207
-0.794884
-0.476845
-0.158831
70.5998
70.608
70.625
70.6512
70.6872
70.7312
70.7881
70.8429
70.9185
70.9781
71.0469
71.0933
71.1352
-3.02859
-2.88142
-2.84736
-2.50846
-2.34774
-2.01982
-1.74073
-1.43356
-1.11807
-0.799281
-0.479533
-0.159744
70.5974
70.6055
70.6224
70.6484
70.6843
70.7285
70.7857
70.8415
70.9189
70.9808
71.0515
71.1007
71.1443
-3.04026
-2.89296
-2.85951
-2.51952
-2.35891
-2.02963
-1.74967
-1.4412
-1.12422
-0.803791
-0.482293
-0.160682
70.5951
70.6031
70.6198
70.6456
70.6814
70.7257
70.7832
70.8399
70.9192
70.9833
71.0561
71.1081
71.1538
-3.05179
-2.90435
-2.87153
-2.53053
-2.37005
-2.03945
-1.75865
-1.44889
-1.13042
-0.808341
-0.48508
-0.16163
70.5929
70.6008
70.6173
70.6429
70.6785
70.723
70.7807
70.8383
70.9194
70.9857
71.0608
71.1156
71.1637
-3.06298
-2.9154
-2.88321
-2.5413
-2.38099
-2.04913
-1.76751
-1.4565
-1.13657
-0.812857
-0.487849
-0.162572
70.591
70.5987
70.6149
70.6403
70.6758
70.7202
70.7782
70.8366
70.9196
70.9879
71.0654
71.1232
71.1739
-3.07367
-2.92594
-2.89438
-2.55166
-2.39154
-2.0585
-1.77612
-1.46391
-1.14256
-0.817264
-0.490553
-0.163493
70.5893
70.5968
70.6128
70.6379
70.6732
70.7176
70.7758
70.8349
70.9199
70.99
71.0701
71.1309
71.1843
-3.0837
-2.93583
-2.90488
-2.56145
-2.40154
-2.06741
-1.78433
-1.47099
-1.14829
-0.821488
-0.493146
-0.164377
70.5879
70.5952
70.6109
70.6357
70.6708
70.7152
70.7736
70.8334
70.9201
70.9921
71.0747
71.1385
71.1948
-3.09294
-2.94493
-2.91454
-2.57051
-2.41084
-2.07572
-1.79201
-1.47762
-1.15367
-0.825454
-0.495583
-0.165208
70.5869
70.5939
70.6092
70.6338
70.6686
70.7129
70.7715
70.8319
70.9203
70.994
71.0791
71.1459
71.2049
-3.10128
-2.95313
-2.92326
-2.57873
-2.41929
-2.08329
-1.79902
-1.48369
-1.1586
-0.829094
-0.497821
-0.165972
70.5862
70.5929
70.6079
70.6321
70.6667
70.7109
70.7696
70.8307
70.9204
70.9956
71.0831
71.1526
71.2142
-3.10863
-2.96032
-2.9309
-2.58598
-2.42676
-2.09
-1.80526
-1.48909
-1.163
-0.832343
-0.499821
-0.166655
70.5861
70.5923
70.6068
70.6307
70.6651
70.7092
70.768
70.8296
70.9205
70.997
71.0865
71.1583
71.2223
-3.11491
-2.96645
-2.93739
-2.59218
-2.43316
-2.09576
-1.81062
-1.49375
-1.16679
-0.835145
-0.501546
-0.167244
70.586
70.5919
70.6059
70.6296
70.6637
70.7078
70.7667
70.8286
70.9206
70.9981
71.0888
71.1629
71.2288
-3.12007
-2.97141
-2.94264
-2.59722
-2.43838
-2.10046
-1.81501
-1.49756
-1.1699
-0.837449
-0.502965
-0.16773
70.5882
70.5922
70.6054
70.6288
70.6628
70.7068
70.7657
70.8279
70.9205
70.9988
71.0902
71.166
71.2333
-3.12406
-2.97527
-2.94663
-2.60108
-2.44237
-2.10404
-1.81838
-1.50049
-1.17229
-0.839214
-0.504053
-0.168102
70.5889
70.592
70.6049
70.6282
70.6621
70.706
70.7649
70.8273
70.9204
70.9991
71.0904
71.1675
71.2357
-3.12684
-2.97772
-2.9493
-2.60366
-2.44508
-2.10644
-1.82065
-1.50246
-1.1739
-0.840408
-0.504789
-0.168353
70.5948
70.5929
70.6048
70.628
70.6619
70.7057
70.7646
70.8272
70.9205
70.9995
71.0896
71.1611
71.2366
-3.12831
-2.9794
-2.95065
-2.60501
-2.4465
-2.10761
-1.82183
-1.50346
-1.17471
-0.841013
-0.505162
-0.16848
70.6196
70.6195
70.6338
70.6589
70.6932
70.7336
70.7871
70.832
70.8961
70.9335
70.9993
71.0271
71.0597
-3.00098
-2.84868
-2.80567
-2.46593
-2.29738
-1.9723
-1.69246
-1.38918
-1.0803
-0.770352
-0.461223
-0.153305
70.613
70.6179
70.6333
70.6585
70.6929
70.7335
70.787
70.8323
70.8964
70.9352
70.9977
71.0275
71.0612
-3.00187
-2.84981
-2.80735
-2.4673
-2.29874
-1.97358
-1.69354
-1.39009
-1.08102
-0.770877
-0.461539
-0.15341
70.611
70.6168
70.6324
70.6577
70.6922
70.7329
70.7866
70.8323
70.8967
70.9367
70.9991
71.0291
71.0637
-3.00466
-2.85318
-2.81082
-2.47029
-2.30167
-1.97613
-1.69578
-1.39197
-1.08253
-0.771969
-0.462201
-0.153634
70.6075
70.6147
70.631
70.6564
70.6911
70.732
70.7858
70.8321
70.897
70.9385
71.0003
71.0316
71.0668
-3.00922
-2.85798
-2.81597
-2.47473
-2.30605
-1.97992
-1.69914
-1.39481
-1.08478
-0.773609
-0.463199
-0.15397
70.6049
70.6126
70.6292
70.6548
70.6896
70.7307
70.7847
70.8317
70.8973
70.9406
71.0021
71.0348
71.0706
-3.01543
-2.86442
-2.82273
-2.48059
-2.31186
-1.9849
-1.70359
-1.39856
-1.08777
-0.77578
-0.46452
-0.154417
70.6022
70.6103
70.6272
70.6528
70.6877
70.7292
70.7833
70.8311
70.8974
70.9427
71.0042
71.0387
71.075
-3.02313
-2.87221
-2.83094
-2.48774
-2.31896
-1.99101
-1.70905
-1.40317
-1.09144
-0.778458
-0.466151
-0.154969
70.5995
70.6079
70.6249
70.6506
70.6856
70.7273
70.7816
70.8302
70.8975
70.9448
71.0066
71.043
71.0799
-3.03215
-2.88131
-2.84048
-2.49609
-2.32726
-1.99816
-1.71546
-1.40859
-1.09577
-0.781609
-0.468072
-0.155619
70.5969
70.6053
70.6224
70.6481
70.6831
70.725
70.7795
70.829
70.8974
70.9469
71.009
71.0475
71.0851
-3.04231
-2.89145
-2.85115
-2.50549
-2.33663
-2.00625
-1.72273
-1.41474
-1.10068
-0.785196
-0.47026
-0.15636
70.5943
70.6027
70.6197
70.6454
70.6804
70.7225
70.7772
70.8274
70.897
70.9486
71.0112
71.0519
71.0904
-3.0534
-2.90249
-2.86276
-2.51578
-2.34691
-2.01516
-1.73075
-1.42155
-1.10613
-0.789172
-0.472687
-0.157183
70.5916
70.6
70.617
70.6426
70.6775
70.7198
70.7745
70.8255
70.8963
70.9498
71.013
71.056
71.0955
-3.06517
-2.9142
-2.87509
-2.52678
-2.35795
-2.02475
-1.73941
-1.42892
-1.11203
-0.793483
-0.47532
-0.158077
70.589
70.5973
70.6142
70.6396
70.6744
70.7168
70.7715
70.8232
70.8953
70.9504
71.0142
71.0595
71.1001
-3.07741
-2.92635
-2.88793
-2.5383
-2.36955
-2.03487
-1.74858
-1.43672
-1.11829
-0.798067
-0.478122
-0.159029
70.5864
70.5947
70.6113
70.6365
70.6712
70.7135
70.7683
70.8204
70.8939
70.9502
71.0146
71.0619
71.1038
-3.08989
-2.93874
-2.90104
-2.55016
-2.38153
-2.04535
-1.75811
-1.44486
-1.12483
-0.802857
-0.481053
-0.160024
70.584
70.5921
70.6085
70.6335
70.6679
70.7102
70.7649