/*--------------------------------*- C++ -*----------------------------------*\
  =========                 |
  \\      /  F ield         | OpenFOAM: The Open Source CFD Toolbox
   \\    /   O peration     | Website:  https://openfoam.org
    \\  /    A nd           | Version:  11
     \\/     M anipulation  |
\*---------------------------------------------------------------------------*/
FoamFile
{
    format      ascii;
    class       volScalarField;
    location    "700";
    object      epsilon;
}
// * * * * * * * * * * * * * * * * * * * * * * * * * * * * * * * * * * * * * //

dimensions      [0 2 -3 0 0 0 0];

internalField   nonuniform List<scalar> 
729
(
31.8589
151.445
255.566
320.93
353.837
347.032
316.264
257.881
105.31
7.02663
14.0397
39.0482
62.985
85.861
100.154
101.281
90.1
64.9504
0.16287
0.562865
1.14974
3.79118
10.2987
21.2772
32.8817
40.6636
36.9655
0.0216918
0.0493396
0.14377
0.292675
1.23373
4.92565
13.1566
22.1072
22.6023
0.0205338
0.0593209
0.136797
0.254895
0.637738
2.09499
6.74499
13.4209
14.3114
0.0227727
0.0680411
0.172101
0.322265
0.596219
1.47741
4.38471
8.83358
9.43174
0.02294
0.0774162
0.17717
0.337522
0.610312
1.25582
3.22713
5.93468
6.17118
0.0231555
0.0791112
0.18716
0.35842
0.616651
1.14092
2.68405
4.46879
4.464
0.0232242
0.0802632
0.186893
0.3591
0.616946
1.03806
1.97376
2.82563
2.64133
118.227
426.155
570.929
663.864
713.378
711.748
660.153
560.865
451.832
9.0832
54.9449
106.635
152.423
186.132
202.829
201.63
199.08
257.808
0.193321
2.11501
10.2335
22.5983
38.3444
53.4741
66.3086
83.5063
122.905
0.0505143
0.137027
0.265381
2.32603
6.33708
14.6839
26.1014
41.6638
64.2906
0.0632967
0.0660955
0.153413
0.50912
1.64018
5.36024
12.6762
23.3827
36.2415
0.0664362
0.0854759
0.169244
0.398021
1.03805
2.99437
7.47786
14.3253
21.7963
0.0718147
0.0860699
0.191323
0.412307
0.9103
2.19561
5.05706
9.21916
13.3926
0.0726226
0.0876397
0.19821
0.434211
0.87864
1.82973
3.79168
6.46515
9.15901
0.0731575
0.0883169
0.201821
0.440319
0.868026
1.58482
2.75069
4.00483
5.20926
150.458
488.876
653.213
770.253
838.169
845.427
794.289
692.416
686.488
12.2121
74.5625
144.372
204.469
247.836
269.743
271.092
277.16
390.288
0.321906
4.85632
19.0032
40.0816
62.4147
81.7286
98.0343
122.271
183.355
0.0999005
0.179811
1.3646
5.25503
13.7844
25.686
40.7536
61.8562
95.0599
0.112414
0.115476
0.282221
0.989859
3.59293
9.69238
19.8897
34.4199
52.8789
0.119064
0.118094
0.238232
0.597145
1.7417
4.95973
11.3682
20.6814
31.2837
0.123763
0.12462
0.253789
0.557844
1.31422
3.30007
7.35212
13.0546
18.9506
0.124821
0.125679
0.263535
0.56111
1.1747
2.54999
5.25886
8.93275
12.7449
0.125268
0.126597
0.267753
0.566574
1.12366
2.10128
3.6983
5.46345
7.16383
165.538
510.22
684.406
814.343
892.877
905.748
854.34
753.066
786.213
14.5139
82.7532
162.124
230.132
279.405
304.873
307.821
316.91
449.317
0.450245
6.67456
24.5725
50.4462
76.5942
98.7372
117.538
145.051
212.176
0.135483
0.320944
2.16846
8.00209
19.0219
33.2674
50.825
74.8195
110.647
0.142774
0.151637
0.401798
1.53608
5.2983
13.0748
25.256
41.8866
61.638
0.155325
0.147922
0.302535
0.78549
2.39836
6.62496
14.4042
25.0937
36.3945
0.157255
0.153576
0.30286
0.678601
1.6665
4.23442
9.17839
15.7245
21.9816
0.16076
0.155119
0.314125
0.663405
1.41561
3.14133
6.42976
10.6468
14.7046
0.160404
0.156072
0.31828
0.663292
1.32008
2.50467
4.42598
6.44741
8.2272
170.837
515.067
692.543
826.627
908.578
923.256
871.847
770.88
813.88
15.4388
84.9815
167.3
237.843
289.06
315.733
319.202
328.989
465.552
0.498464
7.2877
26.4189
53.8297
81.2318
104.34
123.979
152.392
220.53
0.149678
0.348498
2.47236
9.03144
20.8808
35.9298
54.3296
79.1336
115.232
0.15328
0.169668
0.451027
1.77052
5.96603
14.3358
27.1999
44.4257
64.2555
0.168151
0.156517
0.325948
0.864639
2.66783
7.27242
15.5327
26.6133
37.9404
0.169533
0.16458
0.322436
0.726499
1.80914
4.60232
9.86511
16.6476
22.9047
0.173165
0.165889
0.332963
0.702298
1.51035
3.37311
6.87187
11.2398
15.3009
0.172812
0.166865
0.336995
0.699649
1.39508
2.65974
4.69708
6.78386
8.54962
166.015
510.53
684.279
814.392
892.99
905.871
854.463
753.172
786.386
14.507
82.4367
162.019
230.169
279.485
304.96
307.909
316.994
449.436
0.425749
6.66013
24.5591
50.4504
76.6293
98.7862
117.593
145.109
212.248
0.127186
0.805003
2.13209
8.02219
19.0298
33.2915
50.8562
74.8563
110.691
0.142575
0.142724
0.395462
1.54243
5.30167
13.0871
25.2736
41.9096
61.6655
0.154884
0.149402
0.302162
0.785629
2.40025
6.63051
14.4143
25.1082
36.412
0.156979
0.153119
0.302452
0.678443
1.66721
4.23726
9.1845
15.7336
21.9927
0.160404
0.155017
0.313961
0.663186
1.41588
3.14298
6.43373
10.6529
14.7124
0.16009
0.15584
0.317991
0.663092
1.32027
2.50573
4.4284
6.45104
8.23174
149.345
492.241
653.195
770.463
838.416
845.661
794.535
692.537
686.966
11.9436
74.3028
144.248
204.6
248.013
269.916
271.271
277.294
390.583
0.327613
5.11367
18.9248
40.1004
62.4795
81.8201
98.1364
122.367
183.509
0.0973234
0.249404
1.21901
5.40689
13.7631
25.7231
40.8069
61.918
95.1473
0.111627
0.117535
0.275075
1.00697
3.58975
9.71128
19.9181
34.4581
52.9301
0.119495
0.118318
0.237473
0.597
1.7433
4.96733
11.3838
20.7051
31.3149
0.122011
0.124116
0.252876
0.557436
1.31497
3.30393
7.36139
13.0694
18.9701
0.125002
0.125363
0.263328
0.560583
1.17488
2.55227
5.26489
8.94277
12.7584
0.124714
0.126178
0.267168
0.566102
1.12382
2.10282
3.70208
5.46945
7.17183
112.029
438.114
571.433
664.283
713.691
712.025
660.588
560.535
453.135
7.52217
57.2973
106.93
152.769
186.416
203.075
201.909
199.158
258.439
0.228395
3.26847
10.0399
22.6759
38.4432
53.583
66.4346
83.5998
123.173
0.0489762
0.182446
0.252159
2.32216
6.3523
14.7205
26.1588
41.7254
64.4153
0.0614004
0.0622265
0.151201
0.510362
1.64218
5.37331
12.7034
23.4198
36.3049
0.0658998
0.0862744
0.16887
0.397578
1.03822
2.99953
7.49164
14.348
21.8322
0.0711727
0.0852389
0.186358
0.411406
0.910321
2.19817
5.06491
9.23326
13.4137
0.0720434
0.0873122
0.199256
0.433467
0.878488
1.83129
3.79679
6.47486
9.1735
0.0725595
0.0878789
0.201043
0.439598
0.867944
1.58599
2.75402
4.01082
5.21802
31.6532
145.216
256.3
321.897
354.698
347.465
318.348
254.979
106.972
3.98088
24.0058
38.6217
63.9085
86.142
100.478
101.386
90.4257
65.5061
0.232194
0.329959
1.26116
3.80788
10.3851
21.3798
32.9694
40.7578
37.141
0.0214037
0.0511776
0.143191
0.296008
1.23757
4.95311
13.1947
22.1482
22.6709
0.020095
0.057536
0.135873
0.255445
0.638048
2.1022
6.76051
13.4413
14.3447
0.0223788
0.0684258
0.161352
0.321766
0.596383
1.47819
4.39133
8.84605
9.45156
0.0225606
0.0763927
0.181297
0.338537
0.609642
1.256
3.23028
5.94311
6.18388
0.0227846
0.0784182
0.183951
0.356905
0.616375
1.14097
2.68602
4.47558
4.47359
0.0228483
0.0795384
0.185933
0.358161
0.616369
1.038
1.9751
2.82993
2.64751
)
;

boundaryField
{
    inlet
    {
        type            fixedValue;
        value           uniform 14.855;
    }
    outlet
    {
        type            zeroGradient;
    }
    lowerWall
    {
        type            epsilonWallFunction;
        value           nonuniform List<scalar> 
162
(
31.8589
118.227
150.458
165.538
170.837
166.015
149.345
112.029
31.6532
7.02663
9.0832
12.2121
14.5139
15.4388
14.507
11.9436
7.52217
3.98088
0.16287
0.193321
0.321906
0.450245
0.498464
0.425749
0.327613
0.228395
0.232194
0.0216918
0.0505143
0.0999005
0.135483
0.149678
0.127186
0.0973234
0.0489762
0.0214037
0.0205338
0.0632967
0.112414
0.142774
0.15328
0.142575
0.111627
0.0614004
0.020095
0.0227727
0.0664362
0.119064
0.155325
0.168151
0.154884
0.119495
0.0658998
0.0223788
0.02294
0.0718147
0.123763
0.157255
0.169533
0.156979
0.122011
0.0711727
0.0225606
0.0231555
0.0726226
0.124821
0.16076
0.173165
0.160404
0.125002
0.0720434
0.0227846
0.0232242
0.0731575
0.125268
0.160404
0.172812
0.16009
0.124714
0.0725595
0.0228483
105.31
451.832
686.488
786.213
813.88
786.386
686.966
453.135
106.972
64.9504
257.808
390.288
449.317
465.552
449.436
390.583
258.439
65.5061
36.9655
122.905
183.355
212.176
220.53
212.248
183.509
123.173
37.141
22.6023
64.2906
95.0599
110.647
115.232
110.691
95.1473
64.4153
22.6709
14.3114
36.2415
52.8789
61.638
64.2555
61.6655
52.9301
36.3049
14.3447
9.43174
21.7963
31.2837
36.3945
37.9404
36.412
31.3149
21.8322
9.45156
6.17118
13.3926
18.9506
21.9816
22.9047
21.9927
18.9701
13.4137
6.18388
4.464
9.15901
12.7449
14.7046
15.3009
14.7124
12.7584
9.1735
4.47359
2.64133
5.20926
7.16383
8.2272
8.54962
8.23174
7.17183
5.21802
2.64751
)
;
    }
    upperWall
    {
        type            epsilonWallFunction;
        value           nonuniform List<scalar> 
162
(
31.8589
31.6532
7.02663
3.98088
0.16287
0.232194
0.0216918
0.0214037
0.0205338
0.020095
0.0227727
0.0223788
0.02294
0.0225606
0.0231555
0.0227846
0.0232242
0.0228483
151.445
145.216
14.0397
24.0058
0.562865
0.329959
0.0493396
0.0511776
0.0593209
0.057536
0.0680411
0.0684258
0.0774162
0.0763927
0.0791112
0.0784182
0.0802632
0.0795384
255.566
256.3
39.0482
38.6217
1.14974
1.26116
0.14377
0.143191
0.136797
0.135873
0.172101
0.161352
0.17717
0.181297
0.18716
0.183951
0.186893
0.185933
320.93
321.897
62.985
63.9085
3.79118
3.80788
0.292675
0.296008
0.254895
0.255445
0.322265
0.321766
0.337522
0.338537
0.35842
0.356905
0.3591
0.358161
353.837
354.698
85.861
86.142
10.2987
10.3851
1.23373
1.23757
0.637738
0.638048
0.596219
0.596383
0.610312
0.609642
0.616651
0.616375
0.616946
0.616369
347.032
347.465
100.154
100.478
21.2772
21.3798
4.92565
4.95311
2.09499
2.1022
1.47741
1.47819
1.25582
1.256
1.14092
1.14097
1.03806
1.038
316.264
318.348
101.281
101.386
32.8817
32.9694
13.1566
13.1947
6.74499
6.76051
4.38471
4.39133
3.22713
3.23028
2.68405
2.68602
1.97376
1.9751
257.881
254.979
90.1
90.4257
40.6636
40.7578
22.1072
22.1482
13.4209
13.4413
8.83358
8.84605
5.93468
5.94311
4.46879
4.47558
2.82563
2.82993
105.31
106.972
64.9504
65.5061
36.9655
37.141
22.6023
22.6709
14.3114
14.3447
9.43174
9.45156
6.17118
6.18388
4.464
4.47359
2.64133
2.64751
)
;
    }
}


// ************************************************************************* //
