/*--------------------------------*- C++ -*----------------------------------*\
  =========                 |
  \\      /  F ield         | OpenFOAM: The Open Source CFD Toolbox
   \\    /   O peration     | Website:  https://openfoam.org
    \\  /    A nd           | Version:  11
     \\/     M anipulation  |
\*---------------------------------------------------------------------------*/
FoamFile
{
    format      ascii;
    class       volScalarField;
    location    "700";
    object      k;
}
// * * * * * * * * * * * * * * * * * * * * * * * * * * * * * * * * * * * * * //

dimensions      [0 2 -2 0 0 0 0];

internalField   nonuniform List<scalar> 
729
(
2.50735
6.94377
10.0914
11.719
12.4957
12.3225
11.6699
9.95711
5.66365
0.617854
2.06783
2.81817
3.96659
4.85036
5.38478
5.41597
5.02846
4.06881
0.0873496
0.11524
0.289683
0.604277
1.17987
1.91716
2.56095
2.95343
2.78159
0.0193083
0.036894
0.0632235
0.125005
0.275916
0.72609
1.39128
1.96665
1.99953
0.0188739
0.0367721
0.0668677
0.105236
0.18023
0.411712
0.890736
1.40975
1.47298
0.0197034
0.0427996
0.0752254
0.114335
0.17662
0.322948
0.668667
1.0667
1.11503
0.020314
0.0443995
0.0800817
0.123388
0.180213
0.290781
0.545253
0.818286
0.840218
0.020278
0.0464674
0.0810486
0.125042
0.180909
0.272663
0.482203
0.677328
0.676994
0.0203239
0.04646
0.081613
0.126136
0.180953
0.255994
0.392828
0.498961
0.477158
5.78075
23.5363
31.8884
37.0137
39.8166
40.1418
37.7921
32.335
14.7403
0.947101
5.0554
9.30612
13.0199
15.7097
17.1383
17.1167
15.9951
10.1338
0.0900658
0.426822
1.41543
3.10189
5.10769
6.91487
8.21658
8.77649
6.18099
0.0356676
0.082357
0.191751
0.556867
1.49473
2.93447
4.38048
5.33857
4.01094
0.037943
0.0789998
0.151525
0.302199
0.687609
1.55003
2.65957
3.49458
2.73608
0.0418052
0.0948247
0.17385
0.292926
0.543111
1.06823
1.83626
2.42998
1.94899
0.0426121
0.0988449
0.185325
0.311176
0.509858
0.86858
1.39659
1.75642
1.40842
0.0436887
0.103173
0.191662
0.32035
0.499504
0.767171
1.13839
1.35219
1.09315
0.0436747
0.103666
0.193526
0.324197
0.497134
0.706761
0.918409
0.970539
0.750439
7.01518
27.5873
37.6908
44.4248
48.4019
49.3882
47.1716
41.2915
19.4375
1.30159
6.70962
12.686
17.573
21.0322
22.8964
23.0067
21.6746
13.3389
0.118238
0.777556
2.63363
5.30459
7.98494
10.1779
11.6541
12.1045
8.06069
0.0531023
0.126178
0.408153
1.23714
2.82201
4.68009
6.38434
7.3457
5.20173
0.0579622
0.1159
0.237731
0.504476
1.22224
2.47201
3.86289
4.76336
3.51813
0.060859
0.134561
0.23696
0.421037
0.816501
1.59708
2.59893
3.2603
2.47922
0.0617439
0.140079
0.250852
0.414803
0.699909
1.21643
1.9112
2.32287
1.77489
0.0624791
0.145192
0.258937
0.420742
0.657917
1.02513
1.50749
1.75709
1.36238
0.0625092
0.145949
0.260842
0.423862
0.643975
0.918485
1.19288
1.25192
0.927932
7.53781
29.096
40.0023
47.5375
52.1508
53.5123
51.2978
45.014
21.27
1.49017
7.49709
14.3099
19.8027
23.6919
25.8151
25.9803
24.4037
14.6477
0.146698
1.01594
3.40179
6.58742
9.6202
12.0341
13.6002
13.8767
8.88233
0.0656364
0.169185
0.595877
1.77391
3.69145
5.78052
7.61148
8.47382
5.75466
0.0685651
0.141792
0.296087
0.679037
1.63349
3.10338
4.63875
5.49992
3.89605
0.0713005
0.159565
0.281518
0.510639
1.02487
1.97276
3.10532
3.74824
2.7421
0.0733665
0.166611
0.292497
0.484081
0.831683
1.45783
2.25281
2.65435
1.95929
0.0735642
0.171365
0.299297
0.481591
0.758403
1.19599
1.74709
1.99267
1.49862
0.0737083
0.172458
0.30149
0.483288
0.732376
1.05036
1.36122
1.40998
1.01757
7.68695
29.484
40.6405
48.4247
53.2377
54.7138
52.4949
46.069
21.765
1.55119
7.72734
14.7947
20.4771
24.5047
26.713
26.8905
25.2172
14.9978
0.157995
1.09621
3.6548
7.00439
10.1495
12.635
14.2256
14.4196
9.11361
0.0699027
0.184902
0.669013
1.96818
3.99233
6.15455
8.02168
8.83055
5.91234
0.072158
0.151241
0.318535
0.748555
1.78651
3.32784
4.90721
5.736
4.00547
0.0748956
0.168324
0.297831
0.544645
1.10422
2.10993
3.28334
3.90662
2.81913
0.0771812
0.175834
0.306636
0.508477
0.880676
1.54671
2.3732
2.76208
2.01372
0.0773143
0.180288
0.313041
0.503023
0.794428
1.25822
1.83119
2.0691
1.53884
0.077462
0.181537
0.315311
0.503689
0.763163
1.09713
1.4189
1.46022
1.04396
7.53126
29.1128
40.0043
47.5437
52.1584
53.5197
51.3047
45.0207
21.2718
1.48423
7.46896
14.306
19.8075
23.6989
25.8218
25.9864
24.4092
14.6496
0.141579
0.976828
3.38828
6.58942
9.62503
12.0392
13.6049
13.8807
8.88403
0.062506
0.138177
0.586296
1.77794
3.69425
5.78386
7.6148
8.47665
5.75601
0.0695645
0.142084
0.29475
0.680222
1.63482
3.1053
4.64097
5.5019
3.8971
0.0710403
0.159228
0.281187
0.510625
1.02534
1.97381
3.10679
3.74964
2.7429
0.0733192
0.166764
0.292603
0.484031
0.831857
1.45842
2.2538
2.65535
1.9599
0.0734674
0.171065
0.298969
0.481433
0.758436
1.19635
1.74778
1.99342
1.49912
0.0736122
0.172263
0.301274
0.48314
0.732381
1.0506
1.36167
1.41047
1.01791
7.06218
27.7192
37.7038
44.4403
48.417
49.4019
47.1841
41.3071
19.4383
1.32647
6.65726
12.6874
17.5859
21.0474
22.9098
23.0185
21.6854
13.3412
0.116719
0.770176
2.63343
5.31049
7.99488
10.1877
11.663
12.112
8.06293
0.0535663
0.127212
0.406026
1.24125
2.82593
4.68611
6.39026
7.35084
5.20379
0.0578504
0.115695
0.236682
0.506124
1.22332
2.47506
3.86659
4.76689
3.51983
0.0602117
0.13414
0.236851
0.420963
0.817002
1.59863
2.6013
3.26276
2.48058
0.0618976
0.140032
0.250696
0.414573
0.700036
1.21727
1.91276
2.32461
1.77595
0.0621707
0.144719
0.258382
0.420394
0.65789
1.02564
1.50859
1.7584
1.36327
0.0623228
0.145588
0.260419
0.423553
0.643932
0.918824
1.19363
1.2528
0.928552
6.00963
23.9805
31.9295
37.0368
39.8336
40.1557
37.8036
32.3695
14.7255
1.0999
4.91345
9.32473
13.0413
15.7331
17.1571
17.1338
16.0082
10.1288
0.0842287
0.435427
1.41378
3.11167
5.11975
6.92714
8.22792
8.78484
6.1804
0.0351522
0.0827555
0.186249
0.559827
1.49866
2.94061
4.38718
5.34418
4.01187
0.037955
0.0776417
0.149734
0.301857
0.68808
1.55259
2.66334
3.49834
2.73742
0.0414296
0.0942821
0.173842
0.292558
0.543344
1.06938
1.83847
2.43258
1.9503
0.0423704
0.0982476
0.184155
0.310648
0.509762
0.869176
1.39799
1.75826
1.40954
0.0434426
0.102872
0.19123
0.319901
0.499363
0.76752
1.13938
1.3536
1.09413
0.043436
0.103297
0.192982
0.323781
0.497013
0.707008
0.919122
0.971518
0.751139
2.50959
7.15096
10.1032
11.729
12.5049
12.3386
11.6355
10.0488
5.62171
0.985194
1.47688
2.89617
3.96921
4.87195
5.39588
5.42935
5.02975
4.05535
0.0855147
0.170602
0.278556
0.611645
1.18485
1.92298
2.56702
2.95698
2.77856
0.0196021
0.0352216
0.0618229
0.1241
0.277203
0.727916
1.39437
1.96913
1.99959
0.0186224
0.0367276
0.0644359
0.104713
0.180266
0.412044
0.892309
1.41146
1.47385
0.0194816
0.0426111
0.0771157
0.114782
0.176453
0.32316
0.669381
1.06794
1.11604
0.020074
0.0442295
0.078138
0.12298
0.180112
0.290756
0.545585
0.819216
0.841135
0.0200635
0.0461565
0.0815483
0.124846
0.180742
0.272601
0.482452
0.678091
0.67786
0.020104
0.0461794
0.081341
0.125916
0.18083
0.255958
0.393053
0.49955
0.477816
)
;

boundaryField
{
    inlet
    {
        type            fixedValue;
        value           uniform 0.375;
    }
    outlet
    {
        type            zeroGradient;
    }
    lowerWall
    {
        type            kqRWallFunction;
        value           nonuniform List<scalar> 
162
(
2.50735
5.78075
7.01518
7.53781
7.68695
7.53126
7.06218
6.00963
2.50959
0.617854
0.947101
1.30159
1.49017
1.55119
1.48423
1.32647
1.0999
0.985194
0.0873496
0.0900658
0.118238
0.146698
0.157995
0.141579
0.116719
0.0842287
0.0855147
0.0193083
0.0356676
0.0531023
0.0656364
0.0699027
0.062506
0.0535663
0.0351522
0.0196021
0.0188739
0.037943
0.0579622
0.0685651
0.072158
0.0695645
0.0578504
0.037955
0.0186224
0.0197034
0.0418052
0.060859
0.0713005
0.0748956
0.0710403
0.0602117
0.0414296
0.0194816
0.020314
0.0426121
0.0617439
0.0733665
0.0771812
0.0733192
0.0618976
0.0423704
0.020074
0.020278
0.0436887
0.0624791
0.0735642
0.0773143
0.0734674
0.0621707
0.0434426
0.0200635
0.0203239
0.0436747
0.0625092
0.0737083
0.077462
0.0736122
0.0623228
0.043436
0.020104
5.66365
14.7403
19.4375
21.27
21.765
21.2718
19.4383
14.7255
5.62171
4.06881
10.1338
13.3389
14.6477
14.9978
14.6496
13.3412
10.1288
4.05535
2.78159
6.18099
8.06069
8.88233
9.11361
8.88403
8.06293
6.1804
2.77856
1.99953
4.01094
5.20173
5.75466
5.91234
5.75601
5.20379
4.01187
1.99959
1.47298
2.73608
3.51813
3.89605
4.00547
3.8971
3.51983
2.73742
1.47385
1.11503
1.94899
2.47922
2.7421
2.81913
2.7429
2.48058
1.9503
1.11604
0.840218
1.40842
1.77489
1.95929
2.01372
1.9599
1.77595
1.40954
0.841135
0.676994
1.09315
1.36238
1.49862
1.53884
1.49912
1.36327
1.09413
0.67786
0.477158
0.750439
0.927932
1.01757
1.04396
1.01791
0.928552
0.751139
0.477816
)
;
    }
    upperWall
    {
        type            kqRWallFunction;
        value           nonuniform List<scalar> 
162
(
2.50735
2.50959
0.617854
0.985194
0.0873496
0.0855147
0.0193083
0.0196021
0.0188739
0.0186224
0.0197034
0.0194816
0.020314
0.020074
0.020278
0.0200635
0.0203239
0.020104
6.94377
7.15096
2.06783
1.47688
0.11524
0.170602
0.036894
0.0352216
0.0367721
0.0367276
0.0427996
0.0426111
0.0443995
0.0442295
0.0464674
0.0461565
0.04646
0.0461794
10.0914
10.1032
2.81817
2.89617
0.289683
0.278556
0.0632235
0.0618229
0.0668677
0.0644359
0.0752254
0.0771157
0.0800817
0.078138
0.0810486
0.0815483
0.081613
0.081341
11.719
11.729
3.96659
3.96921
0.604277
0.611645
0.125005
0.1241
0.105236
0.104713
0.114335
0.114782
0.123388
0.12298
0.125042
0.124846
0.126136
0.125916
12.4957
12.5049
4.85036
4.87195
1.17987
1.18485
0.275916
0.277203
0.18023
0.180266
0.17662
0.176453
0.180213
0.180112
0.180909
0.180742
0.180953
0.18083
12.3225
12.3386
5.38478
5.39588
1.91716
1.92298
0.72609
0.727916
0.411712
0.412044
0.322948
0.32316
0.290781
0.290756
0.272663
0.272601
0.255994
0.255958
11.6699
11.6355
5.41597
5.42935
2.56095
2.56702
1.39128
1.39437
0.890736
0.892309
0.668667
0.669381
0.545253
0.545585
0.482203
0.482452
0.392828
0.393053
9.95711
10.0488
5.02846
5.02975
2.95343
2.95698
1.96665
1.96913
1.40975
1.41146
1.0667
1.06794
0.818286
0.819216
0.677328
0.678091
0.498961
0.49955
5.66365
5.62171
4.06881
4.05535
2.78159
2.77856
1.99953
1.99959
1.47298
1.47385
1.11503
1.11604
0.840218
0.841135
0.676994
0.67786
0.477158
0.477816
)
;
    }
}


// ************************************************************************* //
