/*--------------------------------*- C++ -*----------------------------------*\
  =========                 |
  \\      /  F ield         | OpenFOAM: The Open Source CFD Toolbox
   \\    /   O peration     | Website:  https://openfoam.org
    \\  /    A nd           | Version:  11
     \\/     M anipulation  |
\*---------------------------------------------------------------------------*/
FoamFile
{
    format      ascii;
    class       volScalarField;
    location    "700";
    object      nut;
}
// * * * * * * * * * * * * * * * * * * * * * * * * * * * * * * * * * * * * * //

dimensions      [0 2 -1 0 0 0 0];

internalField   nonuniform List<scalar> 
729
(
0.0177599
0.0286535
0.0358629
0.0385135
0.0397153
0.0393795
0.0387548
0.0346011
0.0274135
0.00488952
0.0274102
0.0183052
0.0224823
0.0246601
0.026056
0.0260656
0.0252574
0.0229401
0.00421623
0.00212346
0.00656886
0.00866843
0.0121654
0.015547
0.0179511
0.0193059
0.0188378
0.00154681
0.00248289
0.00250224
0.00480522
0.00555363
0.00963298
0.0132412
0.0157458
0.0159201
0.00156134
0.0020515
0.00294171
0.00391031
0.00458408
0.00728195
0.0105867
0.0133274
0.0136443
0.0015343
0.00242298
0.00295931
0.00365077
0.00470887
0.00635338
0.00917743
0.0115927
0.0118639
0.00161897
0.00229174
0.00325776
0.00405962
0.00478922
0.00605964
0.0082913
0.0101544
0.0102958
0.00159823
0.00245641
0.00315879
0.00392608
0.00477665
0.0058646
0.00779672
0.00923955
0.00924034
0.00160073
0.00242038
0.00320751
0.00398754
0.0047767
0.00568174
0.00703645
0.00792978
0.00775792
0.0254387
0.116991
0.160297
0.185732
0.20001
0.203756
0.194715
0.167776
0.0432789
0.00888785
0.0418627
0.0730936
0.100094
0.119333
0.130331
0.130776
0.115661
0.0358497
0.00377645
0.00775217
0.0176196
0.0383195
0.0612336
0.080476
0.0916338
0.0830165
0.0279762
0.0022666
0.00445491
0.0124695
0.0119986
0.0317305
0.052779
0.0661641
0.061565
0.0225209
0.00204703
0.00849812
0.0134694
0.0161439
0.0259438
0.0403405
0.05022
0.0470044
0.0185906
0.00236755
0.00946765
0.0160724
0.0194022
0.0255742
0.0342977
0.0405821
0.0370973
0.0156848
0.0022756
0.0102164
0.0161564
0.0211365
0.0257013
0.0309249
0.0347123
0.0301168
0.0133305
0.00236543
0.0109313
0.0166796
0.0212711
0.025557
0.0289494
0.0307603
0.025453
0.0117422
0.00234662
0.0109515
0.0167014
0.0214829
0.0256246
0.0283666
0.0275977
0.0211682
0.00972964
0.0294377
0.140108
0.19573
0.2306
0.251557
0.259665
0.25213
0.221614
0.0495324
0.0124853
0.0543397
0.100325
0.135928
0.160638
0.174914
0.175726
0.15255
0.0410295
0.00390864
0.0112046
0.0328491
0.0631831
0.0919388
0.114074
0.124687
0.107848
0.031893
0.0025404
0.00796882
0.0109871
0.0262121
0.0519962
0.0767459
0.0900135
0.0785103
0.0256178
0.00268976
0.0104692
0.0180229
0.0231392
0.03742
0.0567432
0.067521
0.0593281
0.0210661
0.00279971
0.0137991
0.0212124
0.026718
0.0344495
0.0462847
0.0534737
0.0462571
0.017683
0.0027723
0.0141711
0.0223154
0.0277596
0.0335473
0.0403547
0.0447137
0.037199
0.014961
0.00281466
0.015096
0.0228978
0.028394
0.0331634
0.0370906
0.0388917
0.0311061
0.013107
0.00280731
0.0151433
0.0228699
0.0285388
0.0332158
0.0361329
0.0346284
0.0258183
0.0108176
0.0308913
0.149332
0.210426
0.249751
0.27414
0.284539
0.27721
0.242161
0.0517889
0.0137698
0.0611284
0.113676
0.153361
0.180804
0.19673
0.197348
0.169128
0.0429761
0.00430174
0.0139174
0.0423847
0.0774185
0.108746
0.132005
0.14163
0.119479
0.0334657
0.00286186
0.00802668
0.0147368
0.0353917
0.0644738
0.0903978
0.10259
0.0863746
0.0269366
0.00296345
0.0119327
0.0196369
0.0270157
0.0453253
0.0662945
0.0766796
0.064995
0.0221638
0.00294569
0.0154913
0.0235764
0.0298765
0.0394158
0.0528698
0.0602516
0.0503885
0.018594
0.00308059
0.0162678
0.025424
0.0310789
0.0373555
0.045171
0.0497653
0.0403257
0.0157173
0.00302969
0.0170381
0.0256652
0.0314645
0.0365678
0.0409811
0.0427245
0.0335656
0.0137459
0.00304832
0.0171507
0.0257027
0.031692
0.0365686
0.0396432
0.0376781
0.0277511
0.011327
0.0311293
0.151898
0.214642
0.255309
0.28075
0.29182
0.28447
0.247784
0.0523842
0.0140268
0.063238
0.117749
0.158668
0.186961
0.203408
0.203879
0.173962
0.0434838
0.00450708
0.0148401
0.0455045
0.0820279
0.114131
0.137703
0.146903
0.122796
0.0338965
0.00293814
0.00882931
0.0162929
0.0386024
0.0686986
0.0948812
0.106595
0.0886865
0.0273017
0.00305721
0.0121334
0.0202467
0.0284833
0.0481466
0.069526
0.0796789
0.0666541
0.0224718
0.00300231
0.0162919
0.0244925
0.0308769
0.0411338
0.0550933
0.0624636
0.0516115
0.0188527
0.00316235
0.0169072
0.026245
0.0320296
0.0385836
0.0467826
0.0513819
0.0412443
0.0159337
0.00310672
0.0176344
0.0264881
0.0324262
0.0376075
0.04224
0.0439172
0.0342805
0.0139288
0.00312498
0.0177749
0.0265521
0.0326352
0.0375732
0.0407306
0.0385762
0.028288
0.0114726
0.030749
0.149414
0.210485
0.249802
0.274186
0.284579
0.277244
0.242199
0.0517865
0.0136668
0.0609034
0.113688
0.153411
0.180859
0.196776
0.197384
0.169161
0.0429763
0.0042373
0.0128942
0.0420715
0.077459
0.108806
0.13205
0.141662
0.119501
0.0334671
0.00276469
0.0021346
0.0145101
0.0354635
0.0645449
0.0904367
0.102616
0.0863899
0.0269384
0.00305475
0.0127303
0.0197717
0.0269984
0.04537
0.066314
0.0766993
0.0650061
0.0221658
0.00293256
0.015273
0.0235501
0.0298695
0.0394203
0.052882
0.0602661
0.0503972
0.018596
0.00308204
0.0163462
0.0254767
0.0310796
0.0373549
0.0451777
0.0497757
0.0403326
0.0157192
0.00302843
0.0169898
0.0256224
0.0314542
0.036564
0.0409843
0.0427319
0.0335714
0.0137478
0.00304634
0.0171375
0.0256892
0.0316822
0.0365641
0.0396442
0.0376827
0.0277551
0.0113285
0.0300559
0.140483
0.195871
0.230698
0.25164
0.259737
0.252186
0.221742
0.049502
0.0132588
0.0536819
0.100434
0.13604
0.160755
0.175008
0.17579
0.152628
0.0410126
0.00374249
0.0104397
0.0329805
0.0632941
0.0920722
0.114165
0.124747
0.107897
0.0318839
0.00265344
0.00583978
0.0121715
0.0256458
0.0522214
0.0768325
0.0900629
0.0785416
0.0256145
0.00269827
0.0102496
0.0183283
0.022895
0.0375194
0.0567723
0.0675541
0.0593501
0.021066
0.00273059
0.0136871
0.0212608
0.0267151
0.0344601
0.0463035
0.0534975
0.0462738
0.0176847
0.00282613
0.014219
0.0223681
0.0277492
0.0335403
0.0403634
0.0447303
0.0372124
0.0149635
0.00278291
0.0150358
0.0228176
0.0283736
0.0331554
0.0370939
0.0389039
0.0311177
0.0131102
0.00280299
0.0151185
0.0228456
0.0285209
0.0332068
0.0361332
0.0346364
0.0258264
0.01082
0.0290141
0.118133
0.160569
0.185848
0.200093
0.203818
0.194705
0.168233
0.0430682
0.0144747
0.0379212
0.0731843
0.100196
0.119505
0.130459
0.130856
0.115806
0.0357273
0.00279561
0.0052207
0.0179175
0.0384295
0.061365
0.0805979
0.0917126
0.0830815
0.0279101
0.00227071
0.00337833
0.0123811
0.0121467
0.0318215
0.0528682
0.0662211
0.0616033
0.0224878
0.00211159
0.00871881
0.0133453
0.0160682
0.0259477
0.040375
0.0502546
0.047031
0.0185763
0.00234412
0.00927298
0.0161064
0.0193751
0.025592
0.0343127
0.0406048
0.0371181
0.0156802
0.00227015
0.0101918
0.016378
0.021111
0.0256911
0.0309311
0.0347279
0.0301339
0.0133305
0.00235765
0.0109084
0.0165174
0.0212479
0.0255469
0.028951
0.0307725
0.025468
0.0117448
0.00234017
0.0109278
0.016672
0.021463
0.0256146
0.0283656
0.0276072
0.0211793
0.00973144
0.0179073
0.0316925
0.0358438
0.0384632
0.0396775
0.0394334
0.0382748
0.0356426
0.0265895
0.0219435
0.00817741
0.0195461
0.0221866
0.024799
0.0260792
0.0261673
0.0251793
0.0225952
0.00283449
0.00793873
0.00553729
0.00884214
0.0121662
0.0155664
0.0179884
0.0193076
0.0187081
0.00161569
0.00218163
0.00240229
0.00468252
0.00558817
0.00962782
0.0132618
0.0157563
0.015873
0.0015532
0.00211003
0.00275022
0.00386317
0.0045837
0.00726867
0.0105997
0.0133395
0.0136288
0.00152636
0.00238819
0.00331706
0.00368509
0.00469866
0.00635839
0.00918318
0.0116035
0.0118605
0.00160754
0.0023047
0.00303094
0.00402074
0.00478908
0.00605772
0.00829329
0.0101631
0.0102971
0.00159006
0.00244507
0.00325364
0.00393045
0.00476997
0.00586171
0.00779902
0.00924632
0.00924412
0.00159204
0.00241302
0.00320263
0.00398407
0.00477465
0.00568046
0.00703972
0.0079364
0.00776115
)
;

boundaryField
{
    inlet
    {
        type            calculated;
        value           uniform 0.000851986;
    }
    outlet
    {
        type            calculated;
        value           nonuniform List<scalar> 
81
(
0.00160073
0.00234662
0.00280731
0.00304832
0.00312498
0.00304634
0.00280299
0.00234017
0.00159204
0.00242038
0.0109515
0.0151433
0.0171507
0.0177749
0.0171375
0.0151185
0.0109278
0.00241302
0.00320751
0.0167014
0.0228699
0.0257027
0.0265521
0.0256892
0.0228456
0.016672
0.00320263
0.00398754
0.0214829
0.0285388
0.031692
0.0326352
0.0316822
0.0285209
0.021463
0.00398407
0.0047767
0.0256246
0.0332158
0.0365686
0.0375732
0.0365641
0.0332068
0.0256146
0.00477465
0.00568174
0.0283666
0.0361329
0.0396432
0.0407306
0.0396442
0.0361332
0.0283656
0.00568046
0.00703645
0.0275977
0.0346284
0.0376781
0.0385762
0.0376827
0.0346364
0.0276072
0.00703972
0.00792978
0.0211682
0.0258183
0.0277511
0.028288
0.0277551
0.0258264
0.0211793
0.0079364
0.00775792
0.00972964
0.0108176
0.011327
0.0114726
0.0113285
0.01082
0.00973144
0.00776115
)
;
    }
    lowerWall
    {
        type            nutkWallFunction;
        Cmu             0.09;
        kappa           0.41;
        E               9.8;
        value           nonuniform List<scalar> 
162
(
0.00165832
0.00242763
0.00265206
0.00274059
0.00276524
0.0027395
0.00266016
0.00247107
0.00165899
0.000876413
0.00106442
0.00123016
0.00130833
0.00133245
0.00130595
0.00124081
0.0011394
0.00108369
0.000359601
0.000364664
0.000412882
0.000455536
0.000471197
0.000448223
0.000410454
0.000353675
0.000356131
0.000179716
0.000238576
0.000286392
0.000315568
0.00032479
0.000308591
0.000287535
0.000236985
0.000180979
0.00017783
0.000245457
0.000298112
0.000321932
0.000329539
0.00032407
0.000297849
0.000245493
0.000176727
0.000181412
0.000256634
0.000304843
0.000327743
0.000335197
0.000327196
0.000303354
0.000255573
0.000180462
0.000183995
0.000258896
0.000306863
0.000332051
0.000339834
0.000331953
0.000307213
0.000258221
0.000182985
0.000183844
0.000261879
0.00030853
0.00033246
0.000340101
0.00033226
0.000307832
0.0002612
0.000182941
0.000184037
0.00026184
0.000308598
0.000332757
0.000340398
0.000332559
0.000308177
0.000261182
0.000183112
0.00240505
0.00372468
0.00422787
0.0044061
0.00445282
0.00440628
0.00422795
0.00372297
0.0023969
0.00206803
0.00313769
0.00355815
0.00371394
0.00375433
0.00371417
0.00355843
0.00313699
0.0020649
0.00173867
0.00250301
0.00282591
0.00295414
0.00298907
0.0029544
0.00282627
0.0025029
0.00173781
0.00149581
0.00205455
0.0023134
0.00242262
0.00245272
0.00242288
0.00231382
0.00205477
0.00149584
0.00130143
0.00172564
0.00193527
0.00202749
0.00205327
0.00202774
0.0019357
0.00172603
0.00130178
0.00114651
0.00147847
0.00164981
0.00172737
0.00174933
0.0017276
0.00165022
0.00147892
0.00114698
0.00100797
0.00127514
0.00141677
0.00148202
0.00150064
0.00148223
0.00141716
0.0012756
0.00100847
0.000913627
0.00113621
0.00125599
0.0013117
0.00132762
0.0013119
0.00125636
0.00113668
0.000914158
0.000779217
0.000957457
0.00105456
0.00109976
0.00111265
0.00109993
0.00105488
0.000957863
0.000779706
)
;
    }
    upperWall
    {
        type            nutkWallFunction;
        Cmu             0.09;
        kappa           0.41;
        E               9.8;
        value           nonuniform List<scalar> 
162
(
0.00165832
0.00165899
0.000876413
0.00108369
0.000359601
0.000356131
0.000179716
0.000180979
0.00017783
0.000176727
0.000181412
0.000180462
0.000183995
0.000182985
0.000183844
0.000182941
0.000184037
0.000183112
0.00263969
0.00267539
0.00151888
0.001303
0.000408074
0.000487966
0.000242314
0.0002372
0.000241946
0.000241811
0.000259419
0.000258894
0.000263825
0.000263361
0.000269393
0.000268565
0.000269374
0.000268626
0.00313169
0.00313337
0.00174906
0.00177097
0.000620952
0.000609984
0.000310207
0.000307043
0.000318263
0.000312915
0.000335871
0.000339702
0.000345611
0.000341753
0.000347511
0.000348488
0.000348615
0.000348083
0.00335343
0.00335473
0.00204416
0.00204477
0.000867599
0.000872395
0.000423494
0.000422092
0.000391516
0.000390626
0.000406609
0.000407333
0.000420987
0.000420352
0.00042355
0.000423249
0.000425236
0.000424898
0.00345337
0.00345454
0.0022407
0.00224525
0.00117639
0.00117864
0.000607346
0.000608634
0.000500319
0.000500365
0.000495731
0.000495517
0.000500299
0.000500171
0.000501178
0.000500967
0.000501233
0.000501078
0.00343138
0.00343344
0.00235023
0.00235244
0.00146742
0.00146945
0.000943196
0.000944274
0.000728642
0.000728909
0.000652435
0.00065263
0.000622022
0.000621997
0.000604077
0.000604014
0.000586983
0.000586945
0.00334699
0.00334248
0.00235643
0.00235909
0.00167438
0.00167619
0.00126805
0.00126934
0.00103511
0.00103594
0.000908497
0.000908938
0.000827967
0.000828196
0.000782954
0.000783138
0.000713244
0.00071343
0.00311256
0.00312564
0.0022779
0.00227816
0.00178685
0.00178783
0.00148456
0.00148541
0.00127569
0.00127639
0.00112361
0.00112421
0.000995915
0.000996429
0.000913832
0.0009143
0.000795217
0.000795643
0.00240505
0.0023969
0.00206803
0.0020649
0.00173867
0.00173781
0.00149581
0.00149584
0.00130143
0.00130178
0.00114651
0.00114698
0.00100797
0.00100847
0.000913627
0.000914158
0.000779217
0.000779706
)
;
    }
}


// ************************************************************************* //
