/*--------------------------------*- C++ -*----------------------------------*\
  =========                 |
  \\      /  F ield         | OpenFOAM: The Open Source CFD Toolbox
   \\    /   O peration     | Website:  https://openfoam.org
    \\  /    A nd           | Version:  11
     \\/     M anipulation  |
\*---------------------------------------------------------------------------*/
FoamFile
{
    format      ascii;
    class       volScalarField;
    location    "700";
    object      p;
}
// * * * * * * * * * * * * * * * * * * * * * * * * * * * * * * * * * * * * * //

dimensions      [0 2 -2 0 0 0 0];

internalField   nonuniform List<scalar> 
729
(
2.92243
3.53752
3.11239
2.11599
1.13121
0.256137
-0.412175
-1.32229
2.35353
0.294776
0.207173
0.219203
0.0794749
-0.0982738
-0.188989
-0.0704124
0.185116
1.39151
0.185176
0.20133
0.225038
0.153973
0.00155915
-0.122195
-0.0898826
0.0743654
0.424338
0.136169
0.137561
0.107478
0.0179347
-0.120094
-0.231921
-0.238419
-0.189951
-0.0398478
0.101894
0.0774624
0.0150189
-0.0818238
-0.197695
-0.281594
-0.294126
-0.257194
-0.149144
0.0581329
0.0215514
-0.0447915
-0.133927
-0.22568
-0.280774
-0.287219
-0.23179
-0.148159
0.027084
-0.00665223
-0.0609252
-0.130468
-0.196006
-0.230167
-0.232621
-0.179356
-0.129101
0.00663607
-0.0132993
-0.0441572
-0.0835424
-0.120055
-0.143009
-0.144879
-0.101939
-0.0783078
-0.00387964
-0.00708973
-0.0117287
-0.0179082
-0.0241296
-0.0368218
-0.0342432
-0.0306072
-0.0508707
3.67713
4.80092
4.12389
2.60669
1.23524
-0.11946
-1.77094
-4.36517
2.27723
-0.100081
-0.180361
-0.243615
-0.3078
-0.323267
-0.264538
0.0310572
0.4848
3.0949
0.18082
0.198656
0.201988
0.129561
0.014572
-0.0712
-0.00513727
0.195576
1.19191
0.108466
0.10241
0.0662539
-0.0234193
-0.145589
-0.238324
-0.256569
-0.345816
-0.084058
0.0775143
0.0364571
-0.0302113
-0.12048
-0.22216
-0.296456
-0.324218
-0.435739
-0.317676
0.0320107
-0.0179316
-0.0824499
-0.161113
-0.236824
-0.287665
-0.306544
-0.374013
-0.257043
0.00728925
-0.0356432
-0.0858873
-0.145525
-0.199132
-0.232658
-0.246503
-0.29247
-0.206389
-0.00422858
-0.0286384
-0.0568392
-0.0904785
-0.12176
-0.143179
-0.152787
-0.184683
-0.133716
-0.00569866
-0.00952526
-0.0137271
-0.0193946
-0.0261882
-0.0349139
-0.0396947
-0.0742977
-0.0878104
4.54382
6.21541
5.53785
3.59867
1.81984
-0.0310616
-2.76348
-6.65918
1.61379
-0.196419
-0.313472
-0.551962
-0.645928
-0.566305
-0.370964
0.117643
0.935528
4.37513
0.14234
0.155343
0.125834
0.0418076
-0.0574184
-0.101107
0.0837893
0.480885
1.94469
0.0471216
0.0447385
0.00590775
-0.0843025
-0.198538
-0.280105
-0.271039
-0.370522
-0.0149477
0.0380171
-0.00112496
-0.0602887
-0.144885
-0.242807
-0.31862
-0.345306
-0.482707
-0.368377
0.00283401
-0.0452645
-0.100659
-0.169592
-0.237714
-0.289459
-0.310263
-0.388617
-0.257179
-0.0118458
-0.0529804
-0.0963154
-0.148316
-0.19408
-0.22551
-0.240149
-0.293737
-0.193576
-0.014383
-0.0378767
-0.0621698
-0.0915501
-0.116738
-0.132857
-0.139952
-0.177889
-0.124759
-0.0073839
-0.0109437
-0.0141172
-0.0191083
-0.0241269
-0.028341
-0.0320861
-0.0705408
-0.0889456
5.02278
6.86127
6.22008
4.11247
2.12988
-0.00660923
-3.32374
-7.67745
1.10187
-0.201355
-0.416519
-0.728528
-0.815688
-0.687665
-0.430865
0.155505
1.22169
4.95909
0.102664
0.108956
0.0483015
-0.0492348
-0.137314
-0.140369
0.147182
0.714218
2.43214
0.00683541
0.00620299
-0.0400169
-0.135782
-0.245904
-0.311555
-0.26269
-0.3292
0.0877513
0.0090441
-0.0290611
-0.0859787
-0.169085
-0.264641
-0.336336
-0.349833
-0.481102
-0.380908
-0.0178136
-0.0649633
-0.115585
-0.178479
-0.241756
-0.291977
-0.309725
-0.382217
-0.259256
-0.0251427
-0.0652018
-0.104492
-0.150911
-0.190772
-0.219609
-0.235164
-0.288086
-0.193205
-0.021351
-0.0441522
-0.0660096
-0.0919851
-0.112452
-0.124371
-0.132361
-0.173688
-0.129545
-0.00871422
-0.0122782
-0.0148775
-0.0191154
-0.0227534
-0.0241925
-0.029106
-0.0724333
-0.0973817
5.15911
7.03722
6.41605
4.26192
2.21737
-0.00829078
-3.49887
-7.95501
0.923342
-0.197793
-0.451446
-0.781082
-0.862939
-0.721577
-0.448262
0.166904
1.30779
5.11302
0.0867801
0.0904341
0.0209647
-0.0791393
-0.162385
-0.151247
0.171258
0.795731
2.59624
-0.00637631
-0.00707667
-0.0559923
-0.15358
-0.261802
-0.320804
-0.256152
-0.307255
0.128487
-0.00122702
-0.0393708
-0.0955428
-0.178111
-0.272771
-0.342215
-0.349761
-0.476691
-0.384753
-0.0250894
-0.071876
-0.120957
-0.181852
-0.24361
-0.292963
-0.308956
-0.377259
-0.260672
-0.0298179
-0.0694491
-0.107365
-0.15179
-0.189656
-0.217465
-0.232871
-0.283261
-0.19198
-0.0237292
-0.0462736
-0.0672752
-0.0919786
-0.110774
-0.121212
-0.129104
-0.16953
-0.129133
-0.00908574
-0.0126537
-0.0150363
-0.0189934
-0.0221149
-0.0225535
-0.0275354
-0.0713004
-0.0982341
5.01817
6.85952
6.2191
4.11213
2.12971
-0.00687587
-3.32442
-7.67762
1.10355
-0.200001
-0.412739
-0.728372
-0.816507
-0.688086
-0.430848
0.156
1.22278
4.96133
0.100843
0.106442
0.0469729
-0.0490604
-0.137083
-0.140171
0.14769
0.715072
2.43377
0.0078783
0.00646462
-0.0403653
-0.135365
-0.245482
-0.311248
-0.262314
-0.328816
0.088425
0.00963255
-0.0295822
-0.086041
-0.168844
-0.264381
-0.33607
-0.349542
-0.48084
-0.380616
-0.0176151
-0.0650403
-0.115605
-0.178279
-0.241522
-0.291747
-0.309497
-0.381998
-0.259061
-0.0249533
-0.0650947
-0.10438
-0.15075
-0.190601
-0.219447
-0.235012
-0.287939
-0.193089
-0.0212184
-0.0440355
-0.0659126
-0.0918896
-0.112355
-0.124282
-0.13228
-0.173613
-0.129497
-0.00864236
-0.0122088
-0.0148242
-0.019076
-0.0227265
-0.0241686
-0.0290844
-0.0724186
-0.0973875
4.53198
6.20905
5.53499
3.59761
1.81934
-0.0315702
-2.76468
-6.65954
1.6179
-0.193293
-0.317267
-0.557076
-0.649074
-0.567962
-0.371482
0.118364
0.937564
4.37951
0.140447
0.152369
0.123624
0.0407737
-0.0578796
-0.101039
0.0845485
0.482263
1.94741
0.045871
0.04403
0.00551072
-0.0840619
-0.198094
-0.279587
-0.27042
-0.369951
-0.0137745
0.0375161
-0.0014324
-0.0603408
-0.144505
-0.242293
-0.318087
-0.344789
-0.482303
-0.367822
0.00302851
-0.0451764
-0.100482
-0.169199
-0.237257
-0.289013
-0.309851
-0.388282
-0.256826
-0.0114602
-0.052663
-0.0960496
-0.148014
-0.193763
-0.225214
-0.239883
-0.293526
-0.19338
-0.0140822
-0.0375971
-0.0619561
-0.091361
-0.11656
-0.132701
-0.139821
-0.177793
-0.124681
-0.00724326
-0.0107966
-0.0140082
-0.01903
-0.0240767
-0.0283018
-0.0320542
-0.0705285
-0.088957
3.65261
4.79184
4.12302
2.60795
1.23695
-0.118473
-1.77139
-4.36425
2.28487
-0.0971806
-0.199293
-0.257504
-0.313809
-0.325946
-0.265515
0.031964
0.48754
3.10078
0.178488
0.190427
0.196995
0.1276
0.0138853
-0.071102
-0.00420685
0.197242
1.19498
0.106636
0.100263
0.065077
-0.0231904
-0.144853
-0.237471
-0.255742
-0.345083
-0.0827223
0.0772168
0.0359025
-0.0304461
-0.119969
-0.221369
-0.295658
-0.32354
-0.435258
-0.316977
0.0326974
-0.0176036
-0.0822073
-0.160613
-0.236221
-0.287079
-0.306029
-0.373657
-0.256624
0.00804033
-0.035011
-0.085479
-0.145135
-0.198746
-0.232313
-0.246197
-0.292284
-0.206197
-0.00370886
-0.0281474
-0.056501
-0.0902285
-0.121548
-0.14302
-0.152663
-0.184637
-0.133666
-0.00548657
-0.00931092
-0.013564
-0.0192881
-0.0261291
-0.0348832
-0.0396745
-0.0743108
-0.0878508
2.85197
3.52214
3.12054
2.12412
1.1398
0.262912
-0.407173
-1.31664
2.36339
0.28746
0.188255
0.205179
0.07708
-0.0984601
-0.188082
-0.067823
0.189112
1.39749
0.18735
0.192468
0.217475
0.151685
0.00129845
-0.121452
-0.0883312
0.0764316
0.426911
0.135563
0.135696
0.105511
0.0179123
-0.119336
-0.230959
-0.23744
-0.189148
-0.0386162
0.101978
0.0774241
0.0147136
-0.0814463
-0.196919
-0.280784
-0.293425
-0.256768
-0.148315
0.0588641
0.0225286
-0.0442588
-0.133348
-0.225046
-0.280203
-0.286726
-0.231539
-0.147623
0.0279293
-0.0056307
-0.0602514
-0.12994
-0.195607
-0.229862
-0.232392
-0.179292
-0.128846
0.00722417
-0.0126211
-0.0436812
-0.0832122
-0.119868
-0.142904
-0.144858
-0.101998
-0.0782171
-0.00364914
-0.00684622
-0.0115582
-0.0177909
-0.0241018
-0.0368253
-0.0342807
-0.030648
-0.050894
)
;

boundaryField
{
    inlet
    {
        type            zeroGradient;
    }
    outlet
    {
        type            fixedValue;
        value           uniform 0;
    }
    lowerWall
    {
        type            zeroGradient;
    }
    upperWall
    {
        type            zeroGradient;
    }
}


// ************************************************************************* //
