/*--------------------------------*- C++ -*----------------------------------*\
  =========                 |
  \\      /  F ield         | OpenFOAM: The Open Source CFD Toolbox
   \\    /   O peration     | Website:  https://openfoam.org
    \\  /    A nd           | Version:  11
     \\/     M anipulation  |
\*---------------------------------------------------------------------------*/
FoamFile
{
    format      ascii;
    class       surfaceScalarField;
    location    "700";
    object      phi;
}
// * * * * * * * * * * * * * * * * * * * * * * * * * * * * * * * * * * * * * //

dimensions      [0 3 -1 0 0 0 0];

internalField   nonuniform List<scalar> 
1944
(
0.00824802
-0.00197663
-0.00636682
0.011959
0.00255221
-0.0062916
0.0170231
0.000555186
-0.00564871
0.0204381
0.000790205
-0.00421526
0.0227722
0.000345703
-0.00268384
0.02401
-0.000479227
-0.000759207
0.0232323
-0.00181632
0.00259597
0.0196587
-0.00307288
0.00664757
0.0157281
0.00393311
-0.00254678
-0.00361624
0.00413996
0.000799999
-0.00430899
0.0034719
0.00447587
-0.00516831
0.00202852
0.00799403
-0.00405726
0.00132027
0.0106171
-0.0031025
0.000821315
0.0115991
-0.00207889
0.000617147
0.00986479
-0.000825133
0.000743743
0.00339323
0.00270794
0.000692941
0.0195083
-0.000385317
-0.000642014
-0.00315815
0.000147895
0.00149559
-0.00766098
0.0011993
0.00322418
-0.00853738
0.00163177
0.00501657
-0.00759568
0.00174049
0.00616883
-0.00569353
0.00143631
0.00610228
-0.00294879
0.000935479
0.00400744
0.00100765
0.000262277
-0.000566639
0.0080593
-0.000776132
0.0210815
-0.00213898
0.000922229
-0.0050707
0.000983831
0.00170627
-0.00956723
0.00111884
0.00261637
-0.0104307
0.00098127
0.00350343
-0.00945681
0.000972294
0.0038711
-0.00696593
0.000903245
0.00330237
-0.00311023
0.000729303
0.0014767
0.00250448
0.000328682
-0.00180062
0.0118483
-0.000511188
0.0212427
-0.00196151
0.000952919
-0.00664117
0.000616679
0.00148892
-0.0108154
0.000712274
0.00198903
-0.0115567
0.000626079
0.00243637
-0.010375
0.000470863
0.00248552
-0.00736167
0.00034605
0.00179257
-0.00276734
0.000349575
4.0646e-05
0.00397788
0.000278361
-0.00223048
0.0143855
-0.000265948
0.0205564
-0.00154411
0.000731511
-0.00784842
0.000474692
0.00101236
-0.0115973
0.000500707
0.00125632
-0.0121948
0.00039456
0.0014325
-0.0107682
0.000217244
0.00130298
-0.0072491
1.69347e-05
0.000594663
-0.00207669
1.73961e-05
-0.00104162
0.0055116
0.000102518
-0.00237901
0.0159147
-0.000191661
0.0194331
-0.00125569
0.000431182
-0.00856825
0.000286878
0.0005346
-0.0119913
0.000290154
0.000626826
-0.0124901
0.000203154
0.000646095
-0.0108448
5.7564e-05
0.000410778
-0.00687842
-0.00013534
-0.000335175
-0.00115873
-0.000172056
-0.00174165
0.00696115
-4.30237e-05
-0.00237303
0.0167261
-0.000179994
0.018083
-0.00102304
0.000183561
-0.00891156
0.000158375
0.000180556
-0.012138
0.000149175
0.000170385
-0.0125618
8.17814e-05
9.29775e-05
-0.0107454
-2.19261e-05
-0.000180755
-0.00644067
-0.000163966
-0.00100761
-5.58296e-05
-0.000276012
-0.00217959
0.00831392
-0.000180751
-0.00229705
0.0170728
-0.000229191
0.0166579
-0.00087192
5.39814e-05
8.84334e-05
1.87051e-05
7.06821e-05
-4.82606e-05
2.08612e-05
-0.000188427
-5.04509e-05
-0.00053976
-0.000146291
-0.00147492
-0.000292805
-0.00219533
-0.000271956
-0.00192048
-0.000321433
-0.000688502
0.00492038
-0.00657888
-0.00472951
0.0112513
-0.00806964
-0.0045688
0.0155143
-0.00566288
-0.00425671
0.018505
-0.00385885
-0.00335241
0.0208838
-0.00289836
-0.00216658
0.0231189
-0.00239467
-0.000600025
0.0255626
-0.00188002
0.0020329
0.0253381
0.00215045
0.00472384
0.0244647
0.00480866
0.00097225
-0.00599837
0.00259332
0.00350708
-0.00873273
0.0015966
0.00711454
-0.00797493
0.00072827
0.0103206
-0.0061062
0.000357906
0.0124057
-0.00438961
0.000225839
0.0129636
-0.00267834
0.000342464
0.0111945
-0.000154612
0.000788066
0.00663177
0.00626876
0.00113893
0.0287187
0.00199365
0.000867169
-0.00785837
0.00115843
0.00292822
-0.0113426
0.00175018
0.00478264
-0.0101786
0.00197917
0.00660221
-0.00793484
0.00174757
0.00764788
-0.00530782
0.00130761
0.00732013
-0.002223
0.00080747
0.00505823
0.00211533
0.000254495
0.00114831
0.00986035
-0.000456994
0.0282809
-0.000552344
0.00117096
-0.00919502
0.00115764
0.00189742
-0.0120532
0.00110627
0.00285776
-0.0112068
0.00104994
0.00383833
-0.00898637
0.00104289
0.00430382
-0.00577264
0.000902026
0.00386225
-0.00166751
0.000615052
0.00229991
0.00385145
0.000154855
-0.00024698
0.0124077
-0.000511521
0.0271967
-0.00112425
0.00111018
-0.0103673
0.000682781
0.00165831
-0.0125676
0.000680771
0.00211414
-0.0115759
0.000540742
0.00248442
-0.00930914
0.000423899
0.00248285
-0.00576613
0.000341119
0.00194483
-0.0010639
0.000283761
0.000832269
0.00515369
8.84971e-05
-0.000803077
0.0141378
-0.000360739
0.0258323
-0.000982854
0.000799744
-0.0111373
0.000446118
0.00106137
-0.0127309
0.000403479
0.00128802
-0.0116874
0.000280409
0.00141415
-0.00934277
0.000125315
0.00125341
-0.00556999
-1.82662e-05
0.000712136
-0.0004713
-3.40202e-05
-0.000172259
0.0061899
-4.94693e-05
-0.00120178
0.0152781
-0.000302685
0.0242062
-0.000831587
0.000472774
-0.011571
0.000247536
0.000561144
-0.0127384
0.000209521
0.000643062
-0.0116834
0.000117629
0.000624498
-0.00925119
-1.50586e-05
0.000388848
-0.00529416
-0.000175328
-0.000124654
0.000100035
-0.00022991
-0.00084908
0.00704769
-0.000176515
-0.0014124
0.015951
-0.000289795
0.022483
-0.000712356
0.000214117
-0.0117584
0.000131518
0.000214359
-0.012691
0.000101651
0.000196514
-0.0116173
3.37811e-05
9.17635e-05
-0.00910294
-6.51772e-05
-0.000181601
-0.00497799
-0.000206647
-0.000696076
0.00066289
-0.000324412
-0.0013119
0.0077642
-0.000281523
-0.0015058
0.0162231
-0.000307455
0.0207226
-0.00061749
7.7358e-05
8.17527e-05
5.6081e-05
5.73716e-05
-1.6716e-05
3.2056e-06
-0.000176597
-7.26991e-05
-0.000486717
-0.000175538
-0.00100528
-0.000298066
-0.00144209
-0.000308739
-0.00131788
-0.000311818
-0.00048122
0.00448725
-0.00653027
-0.00264973
0.0116916
-0.00918451
-0.00258544
0.0158666
-0.00600271
-0.00243124
0.0185813
-0.00410718
-0.00196216
0.0208302
-0.00314115
-0.00127567
0.0232209
-0.00266405
-0.000327196
0.0261701
-0.00207419
0.00115848
0.0250367
0.00324599
0.00261278
0.0266613
0.00318515
0.00323253
-0.00847159
0.00132524
0.00495479
-0.0100743
0.000768226
0.0081121
-0.00866807
0.000236022
0.0109097
-0.00657336
2.53945e-05
0.0126535
-0.00466975
9.86246e-06
0.0128832
-0.00271499
0.000163381
0.0107499
0.000326113
0.00052144
0.00607982
0.00811864
0.000937361
0.0326111
0.00212435
0.0014148
-0.00980143
0.00108595
0.0035683
-0.0117955
0.00132259
0.00545463
-0.00982565
0.00125165
0.0070727
-0.00745237
0.0010083
0.00784716
-0.00485588
0.000718862
0.00718422
-0.0016809
0.000436148
0.00453358
0.00307249
0.000158939
0.000373938
0.0119134
-9.16768e-05
0.0320312
0.000401685
0.00108663
-0.0104578
0.000736365
0.00182931
-0.0121506
0.000723056
0.00289436
-0.0105777
0.000739033
0.00391232
-0.00814719
0.000720258
0.0043066
-0.00492992
0.000581718
0.00369077
-0.000805287
0.000355151
0.00189625
0.00496933
5.25114e-05
-0.000763685
0.0143301
-0.000268239
0.0303674
-0.000224095
0.0010571
-0.0112917
0.000464504
0.00158706
-0.012438
0.000441098
0.00205585
-0.0108688
0.000364748
0.00240414
-0.00837535
0.000304527
0.00235004
-0.00478147
0.000246948
0.00172399
-5.89422e-05
0.000163405
0.000500491
0.00628643
-5.22101e-06
-0.00108923
0.0157994
-0.000240487
0.0285683
-0.000273061
0.000762155
-0.0118941
0.000288352
0.00100713
-0.0125318
0.000253598
0.00123638
-0.0109923
0.000175596
0.00132935
-0.00841838
7.59719e-05
0.00110748
-0.00456788
-9.74733e-06
0.000493596
0.000561508
-4.05948e-05
-0.00044233
0.00726388
-9.11289e-05
-0.00140456
0.016695
-0.000236219
0.0265942
-0.000262182
0.000452737
-0.0122583
0.000159596
0.000535817
-0.0125351
0.000130238
0.000606316
-0.0110112
6.6563e-05
0.000548586
-0.00834855
-2.6768e-05
0.000256429
-0.00431759
-0.000133276
-0.000309798
0.00107724
-0.000179413
-0.0010526
0.00800549
-0.000175436
-0.00156254
0.017162
-0.000247069
0.0245786
-0.00025949
0.000205875
-0.0124157
8.28495e-05
0.00020261
-0.012491
6.08933e-05
0.000174226
-0.010961
1.20918e-05
3.21066e-05
-0.00820996
-6.14906e-05
-0.000291434
-0.00403805
-0.000162584
-0.000831285
0.00153522
-0.000242559
-0.00144363
0.0085774
-0.000241173
-0.00159456
0.0172696
-0.000264214
0.0226175
-0.000250962
7.47984e-05
5.34435e-05
5.24514e-05
3.3877e-05
-3.13314e-05
-6.44681e-06
-0.000219067
-6.4606e-05
-0.000557263
-0.000142868
-0.00105619
-0.000223959
-0.00149271
-0.000247182
-0.00135078
-0.000251516
-0.000215422
0.00445901
-0.00630772
-0.000800734
0.0120066
-0.00931504
-0.000816918
0.0161917
-0.005843
-0.000773291
0.0188186
-0.00395988
-0.000629893
0.0210251
-0.00307486
-0.000408183
0.0234824
-0.00268914
-9.56848e-05
0.0263912
-0.00212905
0.000378835
0.0246229
0.00354556
0.000835978
0.0267326
0.0010761
0.00408622
-0.00946149
0.000403348
0.00558914
-0.0102914
0.000243763
0.00858598
-0.00866863
6.51613e-05
0.0111969
-0.00653805
-7.69241e-06
0.0127529
-0.00461393
-7.52936e-06
0.0127698
-0.00259606
5.3136e-05
0.0103375
0.000641774
0.000182963
0.00547059
0.00899672
0.000353505
0.033485
0.000842766
0.00163853
-0.0104143
0.000413
0.00397832
-0.0117865
0.000481617
0.0058396
-0.00969845
0.000421304
0.00728941
-0.00730304
0.000323665
0.00783903
-0.00467064
0.0002258
0.00690344
-0.00136146
0.000136998
0.00393333
0.00371396
5.69019e-05
-0.000446941
0.0132753
1.02702e-05
0.0331729
0.000267005
0.00104879
-0.0109432
0.000223209
0.0018733
-0.0121375
0.00025285
0.00298409
-0.0103336
0.000264834
0.00395275
-0.00780096
0.000249944
0.00420629
-0.00453775
0.000195349
0.00337882
-0.000292332
0.000113425
0.00132633
0.00580624
1.2723e-05
-0.00148096
0.0158877
-7.33494e-05
0.0314439
2.39449e-05
0.00102607
-0.0116541
0.000152284
0.00154338
-0.0123593
0.000147326
0.00199779
-0.0105495
0.000127326
0.00230131
-0.00790839
0.000108935
0.00216396
-0.00424016
8.68446e-05
0.00139801
0.000586356
5.06568e-05
-6.61026e-06
0.00721636
-1.07538e-05
-0.00162894
0.0173462
-7.66845e-05
0.0295602
-1.8324e-05
0.000734661
-0.0121929
9.36877e-05
0.000962781
-0.012417
8.39158e-05
0.00116968
-0.0106386
5.83512e-05
0.00121237
-0.00789894
2.41972e-05
0.000910119
-0.00394275
-4.7616e-06
0.000186089
0.00128906
-1.92477e-05
-0.000878921
0.00823162
-4.14185e-05
-0.00183015
0.0181439
-8.27382e-05
0.0274991
-3.13209e-05
0.000433352
-0.0125186
5.18978e-05
0.000501948
-0.0123975
4.22452e-05
0.00054884
-0.0106388
1.99682e-05
0.000445481
-0.00780837
-1.37767e-05
8.41076e-05
-0.00366329
-5.12476e-05
-0.000571215
0.00183394
-6.89515e-05
-0.00140874
0.00896538
-7.17086e-05
-0.00190395
0.018483
-9.10266e-05
0.0253797
-4.41056e-05
0.000193614
-0.0126551
2.54828e-05
0.000180053
-0.0123414
1.83189e-05
0.000131856
-0.0105792
7.82785e-07
-4.94141e-05
-0.00766196
-2.65378e-05
-0.000433046
-0.00337909
-6.30852e-05
-0.00103828
0.0022881
-9.14755e-05
-0.00171774
0.00949814
-9.44975e-05
-0.00185681
0.018456
-9.81897e-05
0.0233221
-5.01792e-05
6.78497e-05
1.8254e-05
3.71285e-05
1.06736e-05
-6.27923e-05
-4.53726e-06
-0.000280574
-2.66092e-05
-0.000663601
-5.58785e-05
-0.00119867
-8.5055e-05
-0.00167862
-9.47645e-05
-0.00153957
-9.08027e-05
-4.50946e-05
0.0044533
-0.00620459
0.000984236
0.0121202
-0.00935957
0.000875516
0.0163131
-0.00578749
0.000820407
0.0189183
-0.0038994
0.000663933
0.021114
-0.00303971
0.000435576
0.0235838
-0.00268469
0.000119166
0.0264528
-0.00213206
-0.000358134
0.0244767
0.00363246
-0.00082003
0.0266249
-0.00107196
0.00432923
-0.00974701
-0.000380147
0.005772
-0.0103515
-0.000206415
0.00873034
-0.0086573
-2.4276e-05
0.0112885
-0.00650389
3.82234e-05
0.012785
-0.0045749
3.10204e-05
0.0127295
-0.00254199
-3.4087e-05
0.0101962
0.000751603
-0.000167416
0.00525858
0.00926562
-0.000341833
0.0335633
-0.000836928
0.00172891
-0.0105766
-0.000483798
0.00412295
-0.0117996
-0.000463877
0.00596194
-0.00968232
-0.000393377
0.00735142
-0.0072642
-0.000305809
0.0078219
-0.00460756
-0.000212082
0.00678894
-0.00124654
-0.000125528
0.00370551
0.0039395
-4.75348e-05
-0.00075073
0.0137358
-3.54259e-06
0.0333437
-0.000264117
0.00104874
-0.011085
-0.000312872
0.0019011
-0.0121354
-0.000263564
0.00301889
-0.0102716
-0.000264028
0.00395926
-0.00770251
-0.000252153
0.00415494
-0.00441281
-0.000195081
0.00324454
-0.000111854
-0.000110852
0.00109347
0.00611226
-8.93613e-06
-0.00176013
0.016439
7.69946e-05
0.0316298
-2.22613e-05
0.00101813
-0.0117589
-0.000190591
0.00152679
-0.0123295
-0.000167103
0.00197193
-0.0104515
-0.000138057
0.00225563
-0.00775901
-0.000118248
0.0020817
-0.00405866
-9.33641e-05
0.00125643
0.000818099
-5.40005e-05
-0.000220632
0.00756819
1.03804e-05
-0.00184801
0.0179117
7.79523e-05
0.0297442
1.92579e-05
0.000723298
-0.0122772
-0.000111339
0.00094476
-0.0123734
-9.38635e-05
0.00113959
-0.0105221
-6.59734e-05
0.00116029
-0.00772308
-3.24163e-05
0.000823275
-0.0037233
-3.05849e-06
5.14434e-05
0.00155735
1.33529e-05
-0.00106838
0.008608
3.85797e-05
-0.00200866
0.018687
8.22064e-05
0.0276726
3.16031e-05
0.000425006
-0.0125885
-6.22085e-05
0.000486986
-0.0123442
-4.91707e-05
0.000523043
-0.0105122
-2.60558e-05
0.000399854
-0.00762093
7.26582e-06
7.45519e-06
-0.00342645
4.43305e-05
-0.000689099
0.00212214
6.28169e-05
-0.00157073
0.00935008
6.78282e-05
-0.00205334
0.0189892
8.93523e-05
0.0255312
4.38695e-05
0.000188128
-0.0127176
-3.40333e-05
0.000169813
-0.0122833
-2.45558e-05
0.000112524
-0.0104478
-6.3988e-06
-8.60332e-05
-0.00746986
2.09168e-05
-0.000496881
-0.00313604
5.73341e-05
-0.00113639
0.00258398
8.61888e-05
-0.00185102
0.00987967
9.05346e-05
-0.00197886
0.0189229
9.59632e-05
0.0234525
4.96262e-05
6.38023e-05
-1.84335e-05
2.91852e-05
-1.20826e-05
-7.82029e-05
2.30079e-06
-0.000309543
2.36537e-05
-0.0007139
5.23204e-05
-0.00127304
8.0987e-05
-0.00177899
9.12916e-05
-0.00163565
8.84619e-05
4.44015e-05
0.00439574
-0.00639378
0.0030245
0.0119999
-0.00940989
0.0026943
0.0161895
-0.00586027
0.00248857
0.0188183
-0.0039623
0.00199588
0.0210257
-0.0030734
0.00130054
0.0234834
-0.00268729
0.000348284
0.0263914
-0.00212698
-0.00113936
0.0246218
0.00354868
-0.00259932
0.0267357
-0.00318608
0.00414384
-0.00948768
-0.00143173
0.00559783
-0.0103574
-0.000715805
0.008584
-0.00869445
-0.000177303
0.0111938
-0.0065431
8.52859e-06
0.0127513
-0.0046129
1.2944e-05
0.0127688
-0.00259337
-0.000145613
0.0103362
0.000645441
-0.000507192
0.00546891
0.00900204
-0.000927938
0.0334907
-0.00212301
0.00167755
-0.0103472
-0.00131314
0.00400222
-0.0117923
-0.00136183
0.00584628
-0.00970649
-0.00122704
0.00728869
-0.00730294
-0.000988563
0.0078368
-0.00466899
-0.000704093
0.00690127
-0.00135839
-0.000424973
0.00393115
0.00371824
-0.000150235
-0.000449181
0.0132817
9.71495e-05
0.033179
-0.000401696
0.0010497
-0.0108839
-0.00082787
0.00188532
-0.0121229
-0.000772892
0.00299365
-0.0103289
-0.000752714
0.00395447
-0.00779465
-0.000722256
0.00420503
-0.00453345
-0.000581428
0.00337703
-0.000288291
-0.000353023
0.0013243
0.00581112
-4.90976e-05
-0.00148313
0.0158949
0.000271218
0.0314498
0.000223806
0.00103752
-0.0116249
-0.000489563
0.00155044
-0.0123462
-0.000459059
0.00200031
-0.0105434
-0.000374869
0.00230156
-0.00790179
-0.000313155
0.00216319
-0.00423522
-0.000253484
0.00139675
0.000591081
-0.000167026
-8.30052e-06
0.00722185
4.67567e-06
-0.00163066
0.0173538
0.000241396
0.0295659
0.000272497
0.000736063
-0.0121712
-0.000302685
0.000965379
-0.0124059
-0.000264686
0.00117054
-0.0106318
-0.000183611
0.00121284
-0.00789342
-8.34897e-05
0.000909823
-0.00393796
2.50968e-06
0.000185238
0.00129406
3.49024e-05
-0.000880244
0.00823752
8.83806e-05
-0.00183145
0.0181516
0.000235572
0.0275047
0.000261325
0.000435175
-0.012501
-0.00016909
0.000503707
-0.0123871
-0.00013744
0.000549864
-0.0106322
-7.24129e-05
0.000446158
-0.00780366
2.09273e-05
8.41859e-05
-0.00365891
0.000127117
-0.000571719
0.00183895
0.000173793
-0.00140972
0.00897146
0.000171878
-0.00190491
0.0184907
0.000245461
0.0253853
0.00025839
0.000194862
-0.0126398
-9.11395e-05
0.000181502
-0.0123319
-6.69979e-05
0.000133067
-0.010573
-1.75025e-05
-4.85103e-05
-0.00765765
5.63272e-05
-0.000432631
-0.00337497
0.000157473
-0.00103857
0.00229322
0.00023786
-0.0017185
0.00950425
0.000237675
-0.00185758
0.0184636
0.000262161
0.0233276
0.000249752
6.83885e-05
-5.37783e-05
3.78323e-05
-3.53241e-05
-6.21761e-05
4.33422e-06
-0.000280132
6.19242e-05
-0.000663339
0.000139725
-0.00119896
0.000220367
-0.00167926
0.000244154
-0.00154021
0.00024935
0.000214264
0.0042232
-0.00628853
0.00511853
0.0116532
-0.00949585
0.00478583
0.0158616
-0.00601934
0.00431447
0.0185846
-0.00410609
0.00337697
0.0208348
-0.00313443
0.00218331
0.0232261
-0.00265888
0.000614086
0.0261716
-0.00206868
-0.0020172
0.0250367
0.00325267
-0.00471805
0.0266674
-0.00481775
0.00358645
-0.00821241
-0.00305833
0.00492153
-0.0101793
-0.00135915
0.00808466
-0.00872478
-0.00063047
0.0108953
-0.00658674
-0.000317143
0.0126488
-0.00466735
-0.000206657
0.0128816
-0.00270914
-0.000327947
0.0107484
0.000334025
-0.000776858
0.00607827
0.00812863
-0.00113413
0.0326217
-0.00199966
0.00166178
-0.00965384
-0.00158301
0.00362599
-0.0117136
-0.001807
0.00544717
-0.00984283
-0.00192843
0.00706003
-0.00745693
-0.00172772
0.00783936
-0.00485484
-0.00129383
0.00717944
-0.00167526
-0.000798027
0.00453032
0.00308067
-0.000247436
0.000371229
0.0119247
0.000460147
0.0320429
0.000548205
0.00114295
-0.0103814
-0.0012803
0.00187787
-0.0120877
-0.0011458
0.00290596
-0.0105642
-0.00106169
0.00391082
-0.00813755
-0.0010463
0.00430257
-0.00492386
-0.00090349
0.00368744
-0.000798098
-0.000614635
0.00189343
0.00497815
-0.000152352
-0.000766395
0.0143425
0.000513312
0.0303786
0.00112162
0.00106162
-0.0112314
-0.000705819
0.00160248
-0.012402
-0.00068907
0.00206258
-0.0108536
-0.000548095
0.00240528
-0.00836352
-0.000430888
0.00234889
-0.00477356
-0.000347673
0.00172227
-5.05798e-05
-0.000287844
0.000498416
0.00629603
-8.92616e-05
-0.00109129
0.0158124
0.000361169
0.028579
0.000980732
0.000766553
-0.0118434
-0.000458405
0.00101314
-0.0125051
-0.00040955
0.00123895
-0.0109781
-0.00028597
0.00133102
-0.00840876
-0.00013099
0.00110773
-0.00456013
1.21777e-05
0.000492877
0.000570093
2.90701e-05
-0.00044369
0.00727392
4.70825e-05
-0.00140592
0.0167081
0.000302068
0.0266048
0.00082957
0.000456481
-0.0122139
-0.000255973
0.000540062
-0.0125109
-0.000216085
0.00060897
-0.0109979
-0.000122167
0.000550526
-0.00834037
1.0605e-05
0.000257346
-0.00431062
0.000170636
-0.000309853
0.00108553
0.000225537
-0.00105337
0.00801559
0.000173739
-0.00156341
0.0171751
0.000288533
0.0245894
0.000710474
0.000208102
-0.0123758
-0.000138298
0.000205851
-0.0124691
-0.000107115
0.000177092
-0.0109483
-3.87277e-05
3.43727e-05
-0.00820248
6.09469e-05
-0.000289971
-0.00403164
0.000202757
-0.000831022
0.00154357
0.000320889
-0.0014441
0.00858737
0.000278995
-0.00159519
0.0172824
0.000305932
0.0226282
0.000615763
7.63204e-05
-8.24815e-05
5.41176e-05
-5.87266e-05
-2.98326e-05
-5.02038e-06
-0.000217883
7.05559e-05
-0.000556186
0.00017313
-0.00105606
0.000295293
-0.00149317
0.000306582
-0.00135132
0.000310137
0.000479827
0.00382206
-0.00458167
0.00614353
0.011192
-0.00898663
0.0064849
0.0155299
-0.00559905
0.00558626
0.018531
-0.00384721
0.00422951
0.0209068
-0.00287823
0.00268385
0.0231391
-0.00238387
0.000763391
0.0255698
-0.00186623
-0.00258391
0.0253419
0.00216359
-0.00665589
0.0244683
-0.00394613
0.00196259
-0.00473532
-0.00487088
0.00315603
-0.00926654
-0.00227374
0.00700334
-0.00812873
-0.00192826
0.0102842
-0.00615337
-0.00128009
0.0123978
-0.00438987
-0.000803227
0.012963
-0.00267033
-0.00060521
0.0111969
-0.000140359
-0.000736642
0.00663359
0.00628277
-0.000691132
0.028727
0.000374392
0.00174589
-0.00753921
-0.000670902
0.00296222
-0.0112705
-0.00103854
0.00475898
-0.0102206
-0.00162222
0.00657066
-0.00795415
-0.0017284
0.00763325
-0.00530947
-0.00143115
0.00731332
-0.00221545
-0.000930495
0.00505686
0.00212733
-0.000257834
0.00114827
0.00987408
0.000777395
0.0282901
0.00213302
0.00133087
-0.00905184
-0.00114795
0.00197521
-0.0119938
-0.00107941
0.00287868
-0.011191
-0.000997399
0.00383621
-0.00897985
-0.000976529
0.0042987
-0.00576709
-0.000906601
0.00385908
-0.00165851
-0.00073069
0.00229913
0.00386292
-0.000327317
-0.000246741
0.0124214
0.000511876
0.027207
0.00195794
0.00112852
-0.0102516
-0.000647023
0.00167672
-0.0125215
-0.000717101
0.00212663
-0.0115559
-0.000637037
0.00248928
-0.00929824
-0.000476787
0.00248312
-0.00575829
-0.000350355
0.00194434
-0.00105419
-0.000353062
0.000832311
0.00516505
-0.000279088
-0.000802513
0.0141516
0.000265914
0.0258439
0.00154134
0.00081104
-0.0110385
-0.000485206
0.00106899
-0.0126848
-0.000506734
0.00129282
-0.0116687
-0.000399092
0.00141814
-0.00933314
-0.000222462
0.0012555
-0.0055628
-2.10802e-05
0.000713028
-0.000461895
-2.07519e-05
-0.000171426
0.00620088
-0.000104232
-0.00120087
0.015292
0.000191041
0.0242192
0.00125341
0.000479856
-0.0114823
-0.000293411
0.000569593
-0.0126946
-0.000297328
0.000648071
-0.0116646
-0.000205832
0.000628455
-0.00924255
-6.10456e-05
0.000391707
-0.00528811
0.000132388
-0.000122987
0.000108531
0.000169735
-0.000847723
0.00705801
4.1324e-05
-0.00141132
0.0159651
0.000179102
0.022497
0.00102128
0.000218543
-0.011677
-0.000162931
0.000220119
-0.0126505
-0.000153348
0.000201812
-0.011598
-8.75234e-05
9.61371e-05
-0.00909492
1.86648e-05
-0.000178071
-0.00497287
0.000161626
-0.000694096
0.000671318
0.00027409
-0.00131047
0.00777404
0.000179388
-0.00150487
0.0162372
0.000228226
0.0207374
0.000870582
7.94906e-05
-8.93395e-05
5.88234e-05
-7.17895e-05
-1.40872e-05
-2.18963e-05
-0.000174311
4.90447e-05
-0.000483913
0.000144728
-0.00100374
0.000290911
-0.00144114
0.000270762
-0.00131724
0.000320429
0.000687956
0.00328915
0.00295805
0.0126863
-0.00289671
0.0170913
0.00120084
0.0205978
0.000730272
0.0228555
0.000428242
0.0240802
-0.000461933
0.0232637
-0.00176888
0.0196672
-0.00306146
0.0157202
-0.00141606
-0.000570885
-0.00042621
-0.00615478
0.00422856
-0.00536244
0.0078824
-0.0041906
0.0106136
-0.00310016
0.011608
-0.00205942
0.00989236
-0.000789912
0.00341559
0.00272331
0.0195099
0.00121837
-0.00252768
0.00161139
-0.0075879
0.00325049
-0.00861504
0.00496353
-0.00762452
0.00614383
-0.00570733
0.00609146
-0.00293541
0.00401451
0.00102998
-0.000555551
0.00807057
0.0210874
0.00112719
-0.00483257
0.00187749
-0.00942568
0.00266286
-0.010399
0.00351166
-0.00944894
0.00386532
-0.00696611
0.00330004
-0.00309963
0.00148401
0.00251922
-0.00179142
0.011858
0.0212539
0.000972412
-0.00646243
0.0015338
-0.010709
0.00201436
-0.0115191
0.0024496
-0.0103616
0.0024903
-0.00735705
0.00179559
-0.00275755
4.81363e-05
0.00398786
-0.00222347
0.0143955
0.0205717
0.000742487
-0.00769311
0.00102967
-0.0115051
0.00126918
-0.012159
0.001442
-0.0107576
0.00130995
-0.00724625
0.000599793
-0.00206808
-0.00103439
0.00551785
-0.00237374
0.0159259
0.0194514
0.000439675
-0.00842735
0.000546531
-0.0119102
0.000635845
-0.0124548
0.000653875
-0.0108371
0.000418255
-0.00687838
-0.000329188
-0.00115093
-0.00173513
0.00696515
-0.00236918
0.016739
0.0181035
0.000189207
-0.00877993
0.000190016
-0.0120648
0.000178114
-0.0125308
0.000101176
-0.0107416
-0.000172251
-0.00644339
-0.00100129
-4.77537e-05
-0.00217421
0.00831746
-0.00229459
0.0170877
0.0166795
5.69452e-05
2.29866e-05
-4.41726e-05
-0.000184537
-0.000532512
-0.00147011
-0.00219196
-0.00191906
)
;

boundaryField
{
    inlet
    {
        type            calculated;
        value           uniform 0;
    }
    outlet
    {
        type            calculated;
        value           nonuniform List<scalar> 
81
(
-0.00905402
-0.0118291
-0.0124622
-0.0126878
-0.0127447
-0.0126729
-0.0124235
-0.0117496
-0.00892623
-0.0121734
-0.0126565
-0.0124452
-0.0122875
-0.0122259
-0.0122782
-0.0124235
-0.0126168
-0.0121026
-0.0125157
-0.0115268
-0.0108675
-0.0104812
-0.0103473
-0.010475
-0.010855
-0.0115082
-0.0124855
-0.0105548
-0.0089208
-0.0080303
-0.00748216
-0.00728878
-0.00747798
-0.00802308
-0.0089132
-0.0105522
-0.00594306
-0.00463862
-0.00373252
-0.00308305
-0.00283988
-0.00307918
-0.00372674
-0.00463487
-0.00595068
0.00117216
0.00118669
0.00196003
0.00268426
0.00297707
0.00268946
0.00196852
0.00119554
0.00118076
0.00930629
0.00823777
0.00895233
0.00982566
0.0101996
0.00983171
0.00896207
0.00824728
0.00931009
0.0171194
0.0160892
0.0170673
0.0181562
0.0186003
0.0181637
0.0170798
0.016103
0.0171352
0.0154258
0.0191974
0.0210009
0.0216122
0.0217274
0.0216175
0.0210113
0.019212
0.0154484
)
;
    }
    lowerWall
    {
        type            calculated;
        value           uniform 0;
    }
    upperWall
    {
        type            calculated;
        value           uniform 0;
    }
}


// ************************************************************************* //
