/*--------------------------------*- C++ -*----------------------------------*\
  =========                 |
  \\      /  F ield         | OpenFOAM: The Open Source CFD Toolbox
   \\    /   O peration     | Website:  https://openfoam.org
    \\  /    A nd           | Version:  11
     \\/     M anipulation  |
\*---------------------------------------------------------------------------*/
FoamFile
{
    format      ascii;
    class       volScalarField::Internal;
    location    "700";
    object      tmp<kEpsilon:G>;
}
// * * * * * * * * * * * * * * * * * * * * * * * * * * * * * * * * * * * * * //

dimensions      [0 2 -3 0 0 0 0];

value           nonuniform List<scalar> 
729
(
4.31269
8.20939
10.7792
12.7487
14.7392
15.3174
15.198
9.38127
10.5008
0.383311
0.761444
0.796427
1.57561
2.58077
3.39088
3.49222
1.9019
3.97731
0.0118758
0.0754689
0.140196
0.302959
0.550609
0.796721
0.846551
0.905354
3.2496
0.00581066
0.0209485
0.046002
0.0678773
0.137016
0.213816
0.285415
1.16762
2.50106
0.00840516
0.0279301
0.050909
0.0689619
0.0924709
0.0972279
0.187254
1.10975
1.8244
0.0107874
0.0329304
0.062472
0.0828554
0.0855053
0.0548886
0.191551
0.971608
1.32543
0.012217
0.0373651
0.0657095
0.0863426
0.0819983
0.0301352
0.210665
0.809599
0.944305
0.0130024
0.0385525
0.0686757
0.0888105
0.0764233
0.0136508
0.229481
0.701831
0.717131
0.0133193
0.0391261
0.068601
0.0876535
0.0707413
0.0217113
0.227035
0.525518
0.45708
13.1403
860.828
1099.46
1251.27
1321.31
1304.44
1134.36
893.657
35.0451
0.616284
5.40502
4.80066
5.57086
6.029
6.81833
7.42623
3.45012
14.9807
0.0501074
0.477054
1.001
1.18196
0.651611
0.159723
2.37517
12.7478
9.29699
0.0200682
0.0842037
0.0177891
0.0582022
0.0460766
0.247451
2.2132
9.16894
6.24271
0.0280389
0.0328559
0.0209372
0.0738226
0.176913
0.611643
2.19934
5.43107
4.13554
0.0309877
0.0158735
0.020616
0.108259
0.313265
0.815594
2.07573
3.20079
2.78922
0.0343216
0.00584207
0.0303816
0.159649
0.426643
0.946797
1.928
1.94123
1.89966
0.0353611
0.00141333
0.0450343
0.214032
0.53433
1.04142
1.79106
1.27193
1.39522
0.0358411
0.000399998
0.0621316
0.268718
0.651417
1.14524
1.53511
0.682333
0.870872
15.3839
1008.58
1301.02
1532.76
1657.32
1657.18
1431.13
1095.29
47.6452
0.648757
7.83968
5.88573
6.28462
6.72718
8.07806
8.75768
5.30657
21.5328
0.0912247
0.694602
1.23705
1.25918
0.556145
0.351234
4.70051
20.0534
13.433
0.0351668
0.014742
0.0282943
0.0699578
0.0602079
0.489919
3.86561
14.3125
8.98906
0.0443945
0.0123766
0.0535716
0.0969395
0.239185
0.871452
3.33329
8.30002
5.85637
0.0479792
0.00359418
0.0482316
0.150373
0.404394
1.1019
2.9402
4.75277
3.86478
0.0513129
0.0016664
0.0636939
0.213198
0.547563
1.23353
2.62379
2.85211
2.58997
0.0525226
0.00381536
0.0827799
0.282524
0.675955
1.33504
2.37931
1.87688
1.87625
0.0529906
0.00810067
0.107234
0.352594
0.807076
1.43864
2.01025
1.04001
1.16439
16.4692
1057.47
1374.94
1646.12
1800.56
1810.52
1560.15
1174.21
52.1337
0.664862
8.31978
5.71328
6.36778
7.29423
9.43672
10.5567
5.53772
23.738
0.118441
0.944165
1.51669
1.33345
0.487321
0.537756
6.57146
23.6326
15.0943
0.044652
0.0174636
0.0434362
0.0870121
0.0757367
0.738836
5.33756
16.4398
10.253
0.0533603
0.0132352
0.0637926
0.108111
0.296555
1.14218
4.3797
9.32151
6.70206
0.0582463
0.00451227
0.0644644
0.178113
0.486191
1.36772
3.70688
5.2028
4.40703
0.0610024
0.0057927
0.0863864
0.255289
0.639752
1.47675
3.19966
3.05898
2.94077
0.0628047
0.0110877
0.109812
0.332742
0.775044
1.55934
2.82132
1.99516
2.12019
0.0630537
0.0181049
0.138405
0.41121
0.91111
1.63846
2.31328
1.07975
1.30957
16.9538
1066.92
1393.94
1677.41
1841.32
1854.41
1597.19
1196.11
53.304
0.679516
8.43711
5.57357
6.32441
7.47658
9.95948
11.281
5.45892
24.2076
0.127246
1.03837
1.61121
1.35234
0.460159
0.618554
7.28144
24.5083
15.4762
0.0483033
0.0179194
0.0491361
0.0929073
0.0833476
0.84098
5.89708
16.8715
10.5795
0.0563014
0.0144248
0.0665337
0.113531
0.321901
1.2548
4.77876
9.45899
6.93233
0.06169
0.00561584
0.0714337
0.189639
0.520139
1.47631
3.99257
5.2125
4.55696
0.0643406
0.00804352
0.0947805
0.27104
0.675856
1.57441
3.4058
3.0297
3.03788
0.0661473
0.0143943
0.119976
0.351927
0.812434
1.64672
2.97269
1.962
2.18728
0.0663877
0.0222671
0.14971
0.432671
0.949713
1.71365
2.40977
1.04479
1.34941
16.53
1058.12
1374.08
1646.05
1800.73
1810.72
1560.34
1174.34
52.1422
0.665531
8.31344
5.64448
6.35102
7.29444
9.44189
10.5608
5.53943
23.7455
0.114409
0.868163
1.49964
1.32483
0.48603
0.53813
6.5756
23.6401
15.1002
0.0426091
0.00572029
0.040816
0.0867424
0.0759218
0.740281
5.34243
16.445
10.2575
0.0531272
0.0139476
0.0621321
0.108065
0.296698
1.14342
4.38347
9.32391
6.70525
0.0580047
0.00446439
0.0639029
0.177818
0.486206
1.36857
3.70951
5.20367
4.40926
0.0608427
0.00564695
0.085919
0.254934
0.639697
1.47741
3.2015
3.05916
2.94234
0.0626343
0.0109256
0.109463
0.332296
0.774849
1.55981
2.82261
1.99511
2.12138
0.062903
0.0178839
0.137905
0.410674
0.911005
1.63895
2.31408
1.07957
1.31035
15.0111
1020.5
1298.76
1533.05
1657.61
1657.43
1431.47
1095.32
47.6675
0.675257
8.32022
5.71603
6.28954
6.74223
8.09555
8.76639
5.30612
21.5498
0.0928699
0.687423
1.22328
1.24991
0.557105
0.350687
4.70357
20.0634
13.4452
0.0341858
0.0216229
0.0242475
0.0710459
0.0608378
0.492122
3.87211
14.3219
8.99757
0.0438067
0.013389
0.0506035
0.0972219
0.239383
0.873862
3.33894
8.30557
5.86213
0.0478457
0.0037143
0.0470651
0.14968
0.404313
1.1033
2.9442
4.75558
3.86873
0.0506629
0.0015633
0.0627599
0.212545
0.54745
1.23459
2.62672
2.85349
2.59275
0.0523911
0.0035431
0.0819927
0.281618
0.675588
1.3358
2.38149
1.87764
1.87836
0.0526797
0.0077107
0.106197
0.351501
0.806881
1.43953
2.01176
1.04033
1.1658
11.4251
903.807
1093.05
1251.92
1321.22
1304.18
1134.95
892.289
35.1051
0.673238
6.66873
4.43797
5.69126
6.07284
6.85998
7.44512
3.44003
15.0099
0.0578045
0.59864
0.976786
1.17813
0.657834
0.158679
2.37306
12.7435
9.31304
0.0190141
0.0896798
0.0154296
0.0565921
0.0476591
0.249705
2.21675
9.17323
6.25255
0.0269767
0.0351538
0.0192181
0.0731787
0.177819
0.614144
2.20363
5.43529
4.1418
0.0305207
0.0171483
0.0194033
0.107278
0.313043
0.816976
2.07885
3.20372
2.79348
0.0338575
0.00660879
0.0289971
0.158916
0.4267
0.947811
1.93045
1.94326
1.90265
0.03493
0.00175568
0.0441363
0.212867
0.534052
1.04212
1.79297
1.27343
1.39755
0.0354173
0.000477123
0.0607443
0.267355
0.6514
1.1463
1.53658
0.683272
0.872458
2.92328
9.10292
10.6749
13.0178
14.8055
15.3918
15.2866
9.32037
10.6058
0.418928
0.521816
0.924112
1.51205
2.58776
3.3961
3.49921
1.90625
3.99937
0.0157545
0.0553195
0.155888
0.301773
0.551851
0.795593
0.847218
0.908927
3.25955
0.00524968
0.0214583
0.0464312
0.0686507
0.137524
0.214138
0.286859
1.17026
2.50653
0.00789098
0.0270024
0.0505865
0.0690369
0.0925296
0.0972933
0.188273
1.1116
1.82809
0.0104217
0.0327298
0.0598012
0.0826852
0.0854944
0.0547949
0.192053
0.973091
1.32821
0.0118826
0.03679
0.0664716
0.0864354
0.0819373
0.030012
0.210918
0.81088
0.946469
0.0126739
0.0380989
0.0677563
0.0885248
0.0763931
0.0134422
0.229651
0.703042
0.718958
0.0129965
0.0386777
0.0682151
0.0874887
0.070782
0.0216916
0.227198
0.5265
0.458399
)
;


// ************************************************************************* //
