/*--------------------------------*- C++ -*----------------------------------*\
  =========                 |
  \\      /  F ield         | OpenFOAM: The Open Source CFD Toolbox
   \\    /   O peration     | Website:  https://openfoam.org
    \\  /    A nd           | Version:  11
     \\/     M anipulation  |
\*---------------------------------------------------------------------------*/
FoamFile
{
    format      ascii;
    class       volVectorField;
    location    "700";
    object      U;
}
// * * * * * * * * * * * * * * * * * * * * * * * * * * * * * * * * * * * * * //

dimensions      [0 1 -1 0 0 0 0];

internalField   nonuniform List<vector> 
729
(
(1.09588 -2.797 -0.544398)
(0.840116 -1.90403 -0.562413)
(1.46442 -1.28707 -0.559062)
(1.88494 -0.7425 -0.447085)
(2.19173 -0.422708 -0.312299)
(2.35489 -0.236055 -0.150227)
(2.48931 -0.135154 0.131284)
(1.69782 -0.0156558 0.44426)
(3.22765 1.24433 0.333081)
(-0.602811 0.33783 0.154956)
(0.040544 0.84621 0.32379)
(0.205016 0.418469 0.168158)
(0.633379 0.321359 0.136164)
(0.951561 0.176163 0.0973457)
(1.15602 0.028773 0.0721987)
(1.1737 -0.144277 0.0731105)
(0.666346 -0.190405 0.0540335)
(0.346269 1.7558 0.0447902)
(-0.198028 -0.0924519 -0.0904904)
(0.11676 -0.673182 0.0821574)
(0.217722 -0.778026 0.102294)
(0.40942 -0.705065 0.141146)
(0.566794 -0.54465 0.139195)
(0.639028 -0.333803 0.106958)
(0.584483 -0.0416489 0.0404658)
(0.20996 0.500394 -0.0821115)
(-0.233101 2.07112 -0.191903)
(0.0473088 -0.401666 0.0688683)
(0.144272 -0.865618 0.103633)
(0.212243 -0.964958 0.0774784)
(0.304244 -0.880777 0.0738038)
(0.374014 -0.658504 0.0770659)
(0.374396 -0.314027 0.0774737)
(0.30115 0.182407 0.0392084)
(-0.00782885 1.03896 -0.0855798)
(-0.310138 2.16704 -0.23667)
(0.0610446 -0.609592 0.0435734)
(0.124955 -1.04081 0.0507518)
(0.172239 -1.11759 0.043321)
(0.22089 -1.01186 0.0286693)
(0.249788 -0.737867 0.0214138)
(0.228145 -0.310392 0.031523)
(0.141244 0.324554 0.0277863)
(-0.127921 1.3523 -0.0703459)
(-0.287868 2.11707 -0.209039)
(0.0490404 -0.736397 0.0339282)
(0.0876986 -1.13136 0.0356217)
(0.112034 -1.19635 0.0266879)
(0.133513 -1.06545 0.011788)
(0.138567 -0.738972 -0.00382938)
(0.108813 -0.24941 -0.000508354)
(0.0135855 0.476851 0.00913254)
(-0.203736 1.53795 -0.0628204)
(-0.253261 2.00831 -0.17627)
(0.0289253 -0.83214 0.0202243)
(0.0477732 -1.18677 0.0193386)
(0.0571191 -1.2399 0.0128292)
(0.062581 -1.08509 0.00172661)
(0.0552785 -0.708186 -0.0137681)
(0.0176656 -0.163717 -0.0171237)
(-0.0823371 0.631771 -0.00602391)
(-0.245895 1.64544 -0.0587742)
(-0.220457 1.8756 -0.147274)
(0.0129694 -0.881088 0.0115039)
(0.0179824 -1.2089 0.0104287)
(0.0172772 -1.25316 0.00476784)
(0.0133266 -1.07634 -0.0033105)
(0.000397914 -0.657686 -0.0153441)
(-0.0475828 -0.0583146 -0.0261604)
(-0.151027 0.764867 -0.0201127)
(-0.267363 1.70544 -0.0592482)
(-0.191085 1.75121 -0.126407)
(0.0058371 -0.901011 0.00781566)
(0.00443675 -1.21595 0.00637997)
(-0.000688539 -1.25305 0.00202524)
(-0.0092121 -1.06108 -0.00429709)
(-0.0266135 -0.608021 -0.0142252)
(-0.0958392 0.0899189 -0.0287494)
(-0.186837 0.917838 -0.0317173)
(-0.247238 1.70998 -0.0605472)
(-0.146071 1.55919 -0.100532)
(0.442746 -3.98226 -0.516422)
(0.834939 -2.76501 -0.500204)
(1.33719 -1.62956 -0.4657)
(1.72063 -0.942375 -0.365124)
(1.98612 -0.55511 -0.232504)
(2.20306 -0.298965 -0.0542995)
(2.44653 -0.0346885 0.249431)
(2.23328 0.71212 0.562995)
(3.79693 2.52357 0.490486)
(0.046622 0.884288 0.389989)
(0.172051 0.188185 0.228242)
(0.51888 -0.0888178 0.111627)
(0.896698 -0.155342 0.0564256)
(1.16696 -0.184243 0.0336281)
(1.30679 -0.201138 0.0422249)
(1.28971 -0.179213 0.0911248)
(0.834101 0.220669 0.124258)
(0.836469 2.67004 0.168935)
(-0.0030392 -0.889741 0.105499)
(0.218381 -1.21804 0.167951)
(0.371153 -1.04675 0.224628)
(0.575538 -0.795848 0.209118)
(0.736789 -0.549977 0.159113)
(0.783557 -0.290246 0.0977428)
(0.682161 0.0725579 0.031601)
(0.278065 0.758218 -0.0603556)
(0.107613 2.7839 -0.120453)
(0.0837738 -0.821756 0.115951)
(0.156573 -1.15145 0.11509)
(0.229838 -1.08761 0.109958)
(0.334865 -0.86995 0.112291)
(0.422268 -0.568864 0.100654)
(0.433456 -0.195503 0.0706145)
(0.355175 0.315545 0.0203628)
(0.0641619 1.15097 -0.0606883)
(-0.0526857 2.8223 -0.173832)
(0.07029 -1.00671 0.069493)
(0.143001 -1.25151 0.0778918)
(0.187916 -1.1509 0.0651168)
(0.232177 -0.926898 0.0509686)
(0.25733 -0.584938 0.0390726)
(0.236545 -0.136027 0.0334278)
(0.170931 0.462389 0.0153546)
(-0.04073 1.35688 -0.0324475)
(-0.0809137 2.69252 -0.139223)
(0.0514324 -1.08216 0.0484853)
(0.094843 -1.26885 0.0490601)
(0.116952 -1.16454 0.0372628)
(0.137334 -0.93457 0.0196599)
(0.14088 -0.567288 0.0010249)
(0.108288 -0.075355 -0.000792056)
(0.048219 0.572867 0.00178159)
(-0.112899 1.48504 -0.0177218)
(-0.0899786 2.50898 -0.106332)
(0.029385 -1.14313 0.0274662)
(0.0525374 -1.27491 0.0267137)
(0.0600177 -1.16975 0.0175031)
(0.065462 -0.930783 0.00257403)
(0.0563223 -0.544441 -0.0163228)
(0.021008 -0.0176689 -0.0213333)
(-0.0358219 0.665947 -0.010742)
(-0.156821 1.56953 -0.0126181)
(-0.096314 2.32795 -0.0834089)
(0.0137948 -1.17006 0.0148693)
(0.0219268 -1.26982 0.0131305)
(0.0211776 -1.1633 0.0062517)
(0.0164849 -0.914852 -0.00459094)
(0.000213321 -0.509997 -0.0196992)
(-0.0372952 0.0412572 -0.0318085)
(-0.0951357 0.745875 -0.022033)
(-0.182664 1.62379 -0.0141149)
(-0.0992141 2.17571 -0.0683404)
(0.00683689 -1.18061 0.00940995)
(0.00800383 -1.26564 0.00718151)
(0.00337104 -1.15493 0.00158192)
(-0.00674771 -0.897198 -0.00635407)
(-0.0283506 -0.472665 -0.0164693)
(-0.0704636 0.107395 -0.0295446)
(-0.123562 0.817049 -0.0269178)
(-0.174187 1.61505 -0.0197743)
(-0.0883585 1.94225 -0.0515435)
(0.427241 -4.01809 -0.35937)
(0.878869 -2.89409 -0.363946)
(1.3763 -1.66616 -0.337451)
(1.7407 -0.958561 -0.267433)
(1.98354 -0.57361 -0.172849)
(2.2073 -0.325749 -0.04552)
(2.44586 -0.0370769 0.158131)
(2.33034 0.913031 0.370022)
(3.73397 2.94611 0.410412)
(0.319597 0.753173 0.208081)
(0.325765 0.0407183 0.10747)
(0.644181 -0.187617 0.0364223)
(0.976983 -0.238593 0.00938174)
(1.20822 -0.245975 0.00556424)
(1.31622 -0.239929 0.0230395)
(1.25897 -0.178299 0.0677065)
(0.788574 0.353224 0.119559)
(0.794772 2.97922 0.245311)
(0.0339329 -1.17539 0.130971)
(0.267618 -1.31144 0.169324)
(0.446327 -1.04574 0.162337)
(0.637729 -0.778384 0.132785)
(0.77155 -0.52911 0.0952049)
(0.788317 -0.254523 0.0580508)
(0.649885 0.150249 0.0210745)
(0.204353 0.941 -0.015147)
(0.0582309 3.12237 0.0309702)
(0.0824331 -0.943897 0.0975723)
(0.142526 -1.16675 0.0947265)
(0.226713 -1.02517 0.092709)
(0.344984 -0.790397 0.091089)
(0.430166 -0.495306 0.0749051)
(0.426602 -0.119755 0.047353)
(0.327644 0.425288 0.00929273)
(0.00931175 1.36223 -0.0340571)
(-0.0947275 3.17354 -0.0423912)
(0.066569 -1.11293 0.0586846)
(0.136283 -1.24703 0.0564235)
(0.181781 -1.083 0.0453843)
(0.226975 -0.835061 0.0366667)
(0.248242 -0.48746 0.0300212)
(0.218883 -0.0374138 0.0216209)
(0.142716 0.579078 0.0019152)
(-0.0758885 1.54079 -0.0294724)
(-0.10761 3.00188 -0.0478725)
(0.0481734 -1.1622 0.0370503)
(0.0905462 -1.24871 0.0327076)
(0.111933 -1.0938 0.0222147)
(0.132751 -0.841569 0.00920899)
(0.130506 -0.467988 -0.00200231)
(0.088892 0.028526 -0.00481062)
(0.0213737 0.684719 -0.0097686)
(-0.137937 1.63748 -0.0291838)
(-0.106578 2.76529 -0.0461863)
(0.0274218 -1.21424 0.0205061)
(0.0508723 -1.25489 0.0168579)
(0.0574549 -1.10197 0.00860805)
(0.0611416 -0.840296 -0.00312963)
(0.0471097 -0.445136 -0.0166574)
(0.00377282 0.0841163 -0.0220644)
(-0.0576959 0.768214 -0.0209932)
(-0.175141 1.69923 -0.0313)
(-0.107489 2.54744 -0.0451427)
(0.0127661 -1.23661 0.0107682)
(0.0214046 -1.24987 0.00801682)
(0.0198794 -1.0975 0.00181602)
(0.0132847 -0.826012 -0.00728801)
(-0.00777245 -0.415201 -0.0199688)
(-0.0504867 0.13422 -0.0300608)
(-0.109837 0.835726 -0.0299613)
(-0.194213 1.73656 -0.0345297)
(-0.106287 2.37352 -0.0435862)
(0.00631748 -1.24491 0.00690509)
(0.00798913 -1.2452 0.00443168)
(0.00280475 -1.08944 -0.000656714)
(-0.00931544 -0.808081 -0.0078606)
(-0.0346433 -0.381385 -0.0176673)
(-0.0767238 0.185529 -0.0281554)
(-0.12873 0.888029 -0.0314591)
(-0.178386 1.71152 -0.0341635)
(-0.0918543 2.12274 -0.0373507)
(0.440817 -4.0591 -0.171874)
(0.9111 -2.9292 -0.17186)
(1.40965 -1.66219 -0.160613)
(1.76845 -0.948923 -0.129976)
(2.00383 -0.571026 -0.0845514)
(2.22993 -0.332194 -0.021173)
(2.46275 -0.0361352 0.0759266)
(2.35826 0.975282 0.172654)
(3.66866 3.07324 0.212697)
(0.387108 0.667001 0.0805566)
(0.393964 0.0119784 0.0470462)
(0.703742 -0.192117 0.0126299)
(1.01615 -0.241238 -0.00162159)
(1.22749 -0.248508 -0.00187385)
(1.31663 -0.241567 0.00995688)
(1.23199 -0.171249 0.0356314)
(0.744728 0.40183 0.0687783)
(0.724646 3.02741 0.159366)
(0.0458508 -1.23976 0.0816739)
(0.296313 -1.31075 0.0935123)
(0.492342 -1.03154 0.0827436)
(0.670705 -0.764902 0.0641053)
(0.782838 -0.514389 0.0448517)
(0.775057 -0.230069 0.0271909)
(0.606616 0.199351 0.0112381)
(0.130906 1.04888 0.00202038)
(-0.0183697 3.19713 0.0531958)
(0.0811572 -0.994067 0.0489679)
(0.139198 -1.16983 0.0497659)
(0.234256 -1.00725 0.0526163)
(0.355267 -0.765024 0.0499927)
(0.429169 -0.466038 0.0391282)
(0.407406 -0.0768919 0.0228704)
(0.284804 0.502137 0.00304851)
(-0.0601159 1.51621 -0.0132966)
(-0.165785 3.28389 0.00629914)
(0.0641034 -1.1524 0.0318372)
(0.132797 -1.24092 0.0302976)
(0.176846 -1.05407 0.0255802)
(0.219951 -0.792023 0.0218398)
(0.235155 -0.438586 0.0174211)
(0.194458 0.0221647 0.0103336)
(0.101536 0.66966 -0.00174914)
(-0.131866 1.70154 -0.0144981)
(-0.165068 3.11434 -0.00365012)
(0.0460182 -1.19424 0.01931)
(0.0871358 -1.23842 0.0171688)
(0.106912 -1.05986 0.0118966)
(0.124942 -0.791781 0.0050556)
(0.11546 -0.408341 -0.000802216)
(0.0641595 0.0987337 -0.00362716)
(-0.0168803 0.781005 -0.00798684)
(-0.18268 1.78859 -0.0157837)
(-0.15167 2.8627 -0.00655147)
(0.0260067 -1.24184 0.0106951)
(0.0484655 -1.24209 0.00872778)
(0.053314 -1.06548 0.00424368)
(0.0541316 -0.787096 -0.00243523)
(0.034213 -0.380472 -0.00991284)
(-0.0175868 0.159336 -0.0134423)
(-0.090272 0.86559 -0.0139607)
(-0.211037 1.83765 -0.0172547)
(-0.142962 2.63128 -0.00843712)
(0.0117329 -1.26117 0.00547553)
(0.0199724 -1.23537 0.00397274)
(0.0169619 -1.0598 0.000449742)
(0.00776301 -0.771731 -0.00495206)
(-0.0181947 -0.349585 -0.0122116)
(-0.0675503 0.210183 -0.0179108)
(-0.135287 0.930696 -0.0184579)
(-0.222055 1.86251 -0.0186272)
(-0.133769 2.4486 -0.00921873)
(0.00579385 -1.26799 0.00368614)
(0.00705804 -1.22974 0.0022249)
(0.000719848 -1.05096 -0.000762802)
(-0.0135846 -0.753238 -0.00512196)
(-0.0428338 -0.316252 -0.0108996)
(-0.0887912 0.258347 -0.0166782)
(-0.145854 0.975779 -0.0185298)
(-0.198099 1.82141 -0.0173485)
(-0.111239 2.1864 -0.00807943)
(0.447487 -4.09887 0.00920958)
(0.92336 -2.94181 0.00300881)
(1.42176 -1.66031 0.00231039)
(1.77939 -0.944522 0.00168556)
(2.01295 -0.568839 0.00136238)
(2.23942 -0.332898 0.00117346)
(2.46934 -0.0343785 0.00104065)
(2.36588 0.992917 0.000807458)
(3.64795 3.10602 0.000223902)
(0.403207 0.646597 -0.00142894)
(0.41329 0.00474347 0.00195679)
(0.721647 -0.191442 0.00217477)
(1.0284 -0.239008 0.00159037)
(1.23377 -0.246675 0.00119875)
(1.31666 -0.24025 0.000964421)
(1.22287 -0.167996 0.000787612)
(0.729295 0.415423 0.000605813)
(0.701058 3.02741 0.000337003)
(0.0512992 -1.25165 -0.00468951)
(0.307818 -1.31123 0.00141929)
(0.507304 -1.02846 0.00173627)
(0.680819 -0.76044 0.00100205)
(0.785431 -0.508779 0.000707754)
(0.768904 -0.221099 0.000582272)
(0.58976 0.216324 0.000478574)
(0.103253 1.08504 0.000358321)
(-0.0467613 3.19849 0.000190214)
(0.0814683 -1.01132 -0.00434423)
(0.139551 -1.17298 0.000382469)
(0.237809 -1.00453 0.000369102)
(0.358539 -0.758883 -2.03956e-05)
(0.427593 -0.457066 3.18879e-05)
(0.398661 -0.0619915 0.000137579)
(0.266799 0.529527 0.000197677)
(-0.0877671 1.56894 0.000198061)
(-0.193348 3.30056 0.000116141)
(0.0636823 -1.1633 -0.00176745)
(0.131602 -1.23821 -0.00108904)
(0.174751 -1.04549 -0.000524203)
(0.216745 -0.778763 -0.000439908)
(0.229287 -0.422686 -0.000313373)
(0.183824 0.0432187 -0.000159123)
(0.083725 0.703279 -1.23796e-05)
(-0.15503 1.75937 7.48582e-05)
(-0.188186 3.13601 7.14529e-05)
(0.0451288 -1.20346 -0.000846513)
(0.0857624 -1.23463 -0.000445692)
(0.104741 -1.04894 -0.000357675)
(0.121283 -0.77522 -0.000401509)
(0.108768 -0.387751 -0.000386901)
(0.0534082 0.124268 -0.000291246)
(-0.0335737 0.817966 -0.000139037)
(-0.201965 1.84472 -1.86316e-05)
(-0.170361 2.88188 3.49254e-05)
(0.0254307 -1.24933 -0.000513053)
(0.047389 -1.23712 -0.000336038)
(0.0514362 -1.0532 -0.000297185)
(0.050988 -0.768761 -0.000323695)
(0.0284021 -0.357316 -0.000347676)
(-0.0270823 0.187527 -0.000307892)
(-0.104983 0.904039 -0.00019459)
(-0.227296 1.89021 -7.89872e-05)
(-0.158119 2.64728 5.04152e-06)
(0.0113121 -1.26761 -0.000426854)
(0.0192826 -1.2297 -0.000307654)
(0.0156345 -1.04683 -0.000278306)
(0.00525439 -0.752731 -0.000281676)
(-0.022907 -0.325527 -0.000291002)
(-0.0754227 0.239609 -0.000268332)
(-0.147501 0.969334 -0.000201487)
(-0.235537 1.91132 -0.000109267)
(-0.145974 2.46251 -1.44638e-05)
(0.00547541 -1.27389 -1.08223e-05)
(0.00654059 -1.22371 -7.03412e-05)
(-0.00033209 -1.03767 -0.000113373)
(-0.0156388 -0.733942 -0.000151235)
(-0.0466284 -0.291976 -0.000183113)
(-0.0948023 0.287644 -0.00020837)
(-0.154991 1.01315 -0.000178118)
(-0.208674 1.86579 -0.000116657)
(-0.120418 2.19823 -2.50965e-05)
(0.434781 -4.06582 0.205463)
(0.909897 -2.93707 0.180262)
(1.4094 -1.66431 0.165779)
(1.76838 -0.949583 0.133324)
(2.00382 -0.571109 0.087152)
(2.22999 -0.332141 0.0234117)
(2.46277 -0.0359567 -0.0739171)
(2.35827 0.975524 -0.17115)
(3.66867 3.07342 -0.212477)
(0.39474 0.663325 -0.0836009)
(0.393494 0.00536422 -0.0416048)
(0.704525 -0.193472 -0.00732385)
(1.01604 -0.24147 0.00497281)
(1.22729 -0.248383 0.00426991)
(1.3165 -0.241366 -0.00806105)
(1.23187 -0.170984 -0.0341056)
(0.74452 0.402258 -0.0676615)
(0.724627 3.02791 -0.158921)
(0.0492025 -1.23944 -0.0953913)
(0.297816 -1.31602 -0.0944101)
(0.494265 -1.0336 -0.0800862)
(0.670913 -0.765024 -0.0621841)
(0.782661 -0.514167 -0.043389)
(0.774843 -0.229744 -0.0260242)
(0.606403 0.199752 -0.0103041)
(0.130641 1.04946 -0.00136294)
(-0.0184842 3.1977 -0.0529716)
(0.0833365 -0.986349 -0.0573036)
(0.137971 -1.16929 -0.0530026)
(0.235808 -1.00733 -0.0531332)
(0.355825 -0.764686 -0.0501773)
(0.429086 -0.465747 -0.0390526)
(0.407267 -0.0765284 -0.0226057)
(0.284622 0.502603 -0.00266736)
(-0.0603624 1.5169 0.0136591)
(-0.16593 3.28449 -0.00617234)
(0.06528 -1.14821 -0.0348165)
(0.133718 -1.23905 -0.0319352)
(0.177275 -1.05382 -0.0265308)
(0.219996 -0.791451 -0.0227099)
(0.235123 -0.438128 -0.0180482)
(0.194369 0.0226136 -0.0106633)
(0.101391 0.670188 0.00171549)
(-0.132064 1.70229 0.0146257)
(-0.165205 3.11493 0.00370727)
(0.0459278 -1.19139 -0.0208585)
(0.0873956 -1.23708 -0.0181983)
(0.107126 -1.05905 -0.0126517)
(0.124966 -0.791189 -0.0058318)
(0.11547 -0.407858 5.51525e-05)
(0.0641039 0.099222 0.00305412)
(-0.016993 0.781581 0.00771138)
(-0.182831 1.78936 0.0157342)
(-0.151784 2.86326 0.00655025)
(0.026096 -1.23994 -0.0116597)
(0.0486512 -1.24101 -0.00941295)
(0.0534648 -1.06479 -0.0048271)
(0.0542075 -0.786587 0.00182107)
(0.0342522 -0.380013 0.00925676)
(-0.0176066 0.159841 0.0128523)
(-0.0903538 0.866194 0.0135854)
(-0.211152 1.83843 0.0170928)
(-0.143053 2.63184 0.0083894)
(0.0117991 -1.2595 -0.00630166)
(0.0201137 -1.23433 -0.00458113)
(0.0170995 -1.05913 -0.000996161)
(0.00786961 -0.771257 0.00441158)
(-0.0181268 -0.349136 0.011663)
(-0.0675433 0.210688 0.0174044)
(-0.135347 0.931308 0.0180764)
(-0.222147 1.86328 0.0184107)
(-0.133842 2.44915 0.00914263)
(0.00583381 -1.26652 -0.00369987)
(0.00712705 -1.22883 -0.00236685)
(0.000788851 -1.05037 0.000542115)
(-0.0135302 -0.752837 0.00483363)
(-0.0428059 -0.31588 0.0105557)
(-0.088781 0.258861 0.0162867)
(-0.145904 0.976386 0.0181949)
(-0.198177 1.82216 0.0171183)
(-0.111294 2.18694 0.00799279)
(0.399437 -3.93544 0.412784)
(0.872564 -2.9158 0.377077)
(1.37464 -1.66991 0.342574)
(1.74082 -0.960406 0.270246)
(1.9838 -0.574008 0.174881)
(2.20773 -0.325794 0.0473335)
(2.44607 -0.0366327 -0.156387)
(2.33046 0.913462 -0.368916)
(3.73408 2.94611 -0.410837)
(0.364246 0.784236 -0.215669)
(0.321087 0.0156476 -0.0947307)
(0.644461 -0.189272 -0.0286386)
(0.975324 -0.238747 -0.00588361)
(1.20742 -0.245416 -0.00339984)
(1.31591 -0.239392 -0.0213624)
(1.25879 -0.177691 -0.0663825)
(0.788249 0.354087 -0.118732)
(0.794989 2.98015 -0.245437)
(0.0623743 -1.17912 -0.15742)
(0.273506 -1.30864 -0.168702)
(0.449314 -1.04908 -0.159279)
(0.636656 -0.778504 -0.130855)
(0.770716 -0.528591 -0.0938148)
(0.787727 -0.253811 -0.0570007)
(0.649491 0.151081 -0.020259)
(0.203949 0.942042 0.0156285)
(0.0582589 3.12353 -0.0311272)
(0.090991 -0.93062 -0.107911)
(0.146454 -1.16125 -0.0992617)
(0.229107 -1.02655 -0.0942825)
(0.345553 -0.790466 -0.0913699)
(0.429783 -0.495022 -0.0749492)
(0.426282 -0.119106 -0.0472046)
(0.327351 0.426155 -0.00898857)
(0.00895031 1.36345 0.0343075)
(-0.0947785 3.17469 0.0422547)
(0.0676904 -1.10278 -0.0613671)
(0.137345 -1.2418 -0.0576015)
(0.182922 -1.08177 -0.0462198)
(0.227176 -0.834132 -0.0374446)
(0.24822 -0.486825 -0.030675)
(0.218758 -0.0366247 -0.0219964)
(0.14253 0.580016 -0.00198046)
(-0.0761623 1.54209 0.0295348)
(-0.107689 3.00299 0.0477216)
(0.0486842 -1.15626 -0.0384027)
(0.0910518 -1.24546 -0.033603)
(0.112414 -1.09222 -0.0228913)
(0.132873 -0.840567 -0.00984994)
(0.130621 -0.467206 0.00134034)
(0.0888672 0.0293766 0.00428101)
(0.0212616 0.685713 0.00950745)
(-0.138123 1.6388 0.0291086)
(-0.106648 2.76637 0.0460177)
(0.0276686 -1.20964 -0.0213596)
(0.0512662 -1.25235 -0.0175178)
(0.0578234 -1.10055 -0.0091197)
(0.0613513 -0.8394 0.00262396)
(0.0472568 -0.4444 0.0161201)
(0.00381873 0.0849646 0.0215656)
(-0.0577475 0.769229 0.020668)
(-0.175265 1.70054 0.0311418)
(-0.107543 2.54851 0.044967)
(0.012815 -1.23239 -0.0115014)
(0.0217117 -1.24751 -0.0085884)
(0.0202005 -1.09615 -0.0023187)
(0.0135371 -0.825186 0.00682458)
(-0.00758513 -0.414485 0.0195209)
(-0.0503973 0.135049 0.0296486)
(-0.109853 0.836731 0.0296489)
(-0.194304 1.73786 0.034336)
(-0.10633 2.37459 0.0434145)
(0.0064679 -1.24106 -0.00695892)
(0.00814965 -1.24308 -0.00457568)
(0.0029694 -1.08823 0.000455964)
(-0.00917966 -0.807392 0.0076144)
(-0.0345523 -0.380832 0.0173855)
(-0.0766371 0.186364 0.0278346)
(-0.128747 0.889009 0.0311893)
(-0.178465 1.71279 0.033959)
(-0.0918873 2.1238 0.0372024)
(0.284894 -3.58657 0.51901)
(0.823483 -2.83184 0.522327)
(1.33346 -1.63616 0.468645)
(1.72315 -0.948583 0.3674)
(1.98812 -0.557172 0.234118)
(2.20504 -0.300094 0.0556441)
(2.44758 -0.0335766 -0.248053)
(2.23383 0.712793 -0.562529)
(3.79695 2.52243 -0.490797)
(0.17253 1.10172 -0.418957)
(0.135971 0.102687 -0.216325)
(0.51181 -0.084608 -0.104827)
(0.890726 -0.155351 -0.0545068)
(1.16496 -0.182606 -0.0324863)
(1.30641 -0.199989 -0.041165)
(1.28976 -0.178008 -0.0901751)
(0.833857 0.222102 -0.12399)
(0.837508 2.67082 -0.169631)
(0.0929505 -0.917462 -0.125205)
(0.230602 -1.23143 -0.1896)
(0.376356 -1.05658 -0.219657)
(0.572067 -0.796953 -0.208438)
(0.73497 -0.549119 -0.158071)
(0.782541 -0.289025 -0.0970031)
(0.68175 0.0739906 -0.0310088)
(0.277767 0.759644 0.0605098)
(0.108243 2.78485 0.119814)
(0.106978 -0.788473 -0.127117)
(0.163633 -1.15177 -0.121854)
(0.234827 -1.09261 -0.111158)
(0.335312 -0.871774 -0.11305)
(0.421938 -0.568875 -0.100966)
(0.433063 -0.194683 -0.0706355)
(0.354976 0.316743 -0.0201407)
(0.0639633 1.1524 0.0607803)
(-0.0521848 2.82331 0.173323)
(0.0737805 -0.986643 -0.0717442)
(0.144264 -1.24561 -0.0796251)
(0.189643 -1.14949 -0.0658858)
(0.232863 -0.926424 -0.0516437)
(0.257513 -0.584452 -0.0396751)
(0.236529 -0.13512 -0.033805)
(0.170906 0.463551 -0.0154147)
(-0.0408361 1.35828 0.032457)
(-0.0805507 2.69364 0.138823)
(0.0526528 -1.07114 -0.0495041)
(0.0956259 -1.26339 -0.049828)
(0.1176 -1.16246 -0.0378939)
(0.137746 -0.933593 -0.020226)
(0.141166 -0.566578 -0.00156067)
(0.108433 -0.0744036 0.000370179)
(0.0483007 0.573997 -0.00197725)
(-0.112922 1.48644 0.0176614)
(-0.0897007 2.51023 0.105991)
(0.0298471 -1.13401 -0.0281545)
(0.0533192 -1.27046 -0.0274179)
(0.0607206 -1.16786 -0.0180207)
(0.0658806 -0.929829 -0.00299429)
(0.056651 -0.543767 0.0159292)
(0.0212419 -0.016767 0.0209845)
(-0.0356678 0.667013 0.0105277)
(-0.156789 1.57093 0.0125151)
(-0.0960967 2.32932 0.0831223)
(0.0140856 -1.1616 -0.0154039)
(0.0224296 -1.26556 -0.0136049)
(0.0217671 -1.16125 -0.0066783)
(0.0169491 -0.913953 0.00423573)
(0.000598937 -0.509352 0.0193936)
(-0.0370133 0.0421055 0.0315378)
(-0.0949519 0.746877 0.0218503)
(-0.182618 1.6252 0.013994)
(-0.0990535 2.17717 0.0681008)
(0.00700446 -1.17267 -0.00949185)
(0.00826799 -1.26172 -0.0073043)
(0.003648 -1.15312 -0.00173592)
(-0.00650113 -0.896479 0.00617229)
(-0.0281512 -0.472316 0.0162755)
(-0.0701937 0.108239 0.0293203)
(-0.123418 0.818006 0.0267602)
(-0.174164 1.61646 0.0196335)
(-0.0882432 1.94373 0.0513706)
(0.0537763 -2.02987 0.44103)
(1.03452 -2.14538 0.596083)
(1.41512 -1.30764 0.554239)
(1.91618 -0.771713 0.450964)
(2.19652 -0.432415 0.313321)
(2.36372 -0.244038 0.151006)
(2.49367 -0.131785 -0.129178)
(1.69878 -0.017358 -0.445353)
(3.22745 1.24378 -0.336478)
(-0.0738027 1.03997 -0.379048)
(-0.297141 0.309177 -0.107769)
(0.25159 0.493714 -0.167397)
(0.598102 0.314724 -0.126606)
(0.950702 0.185673 -0.0940663)
(1.15544 0.0327411 -0.0702037)
(1.17579 -0.140724 -0.0721518)
(0.666931 -0.188284 -0.0541378)
(0.351482 1.75496 -0.0451916)
(0.110989 -0.221254 -0.0416934)
(0.0975926 -0.699265 -0.0220687)
(0.254232 -0.808302 -0.107347)
(0.399889 -0.704687 -0.138014)
(0.564565 -0.543507 -0.138812)
(0.63702 -0.330738 -0.106339)
(0.584219 -0.0382595 -0.0399179)
(0.210023 0.50184 0.0822011)
(-0.22989 2.07161 0.19161)
(0.0952131 -0.348989 -0.0940536)
(0.147998 -0.868145 -0.0835424)
(0.226631 -0.973637 -0.0798497)
(0.305206 -0.884665 -0.0732169)
(0.374229 -0.659889 -0.0772838)
(0.373934 -0.31297 -0.0776297)
(0.301354 0.184313 -0.0390463)
(-0.00752121 1.04009 0.0856347)
(-0.307721 2.16797 0.23669)
(0.0669187 -0.5787 -0.0472247)
(0.126618 -1.02535 -0.0489855)
(0.176654 -1.11444 -0.0450203)
(0.222319 -1.01125 -0.0292057)
(0.250612 -0.737849 -0.021706)
(0.228453 -0.309408 -0.031847)
(0.141746 0.325878 -0.0278248)
(-0.127507 1.35331 0.0703522)
(-0.286235 2.11846 0.20915)
(0.0504904 -0.718982 -0.0350193)
(0.0887588 -1.12034 -0.035562)
(0.113785 -1.19243 -0.026768)
(0.134537 -1.06415 -0.0122208)
(0.139319 -0.738601 0.00352784)
(0.109396 -0.248549 0.000238099)
(0.0142258 0.477625 -0.00924869)
(-0.203339 1.53899 0.0627822)
(-0.252164 2.01001 0.176402)
(0.0296463 -0.817798 -0.0207778)
(0.0487294 -1.17825 -0.0198301)
(0.0581776 -1.23618 -0.0126131)
(0.0633879 -1.08415 -0.00193219)
(0.0559664 -0.708099 0.0135685)
(0.0183905 -0.162953 0.0169716)
(-0.0816583 0.632234 0.0059082)
(-0.245546 1.64664 0.0587139)
(-0.21974 1.87757 0.147408)
(0.0133911 -0.867539 -0.0118295)
(0.0187261 -1.20128 -0.0106788)
(0.0181469 -1.2499 -0.00548768)
(0.0140793 -1.07573 0.00303419)
(0.00118412 -0.657615 0.015169)
(-0.046782 -0.0573614 0.0260264)
(-0.150375 0.765216 0.020022)
(-0.267101 1.70681 0.0591884)
(-0.190645 1.75336 0.126536)
(0.00605306 -0.888201 -0.00791436)
(0.00482297 -1.20888 -0.00647789)
(-0.000238196 -1.25005 -0.00208506)
(-0.00883331 -1.06084 0.0041982)
(-0.0262465 -0.608751 0.0140882)
(-0.095054 0.0906225 0.0286009)
(-0.186344 0.918213 0.0316379)
(-0.247118 1.71158 0.0605009)
(-0.145799 1.56142 0.100689)
)
;

boundaryField
{
    inlet
    {
        type            fixedValue;
        value           uniform (10 0 0);
    }
    outlet
    {
        type            zeroGradient;
    }
    lowerWall
    {
        type            noSlip;
    }
    upperWall
    {
        type            noSlip;
    }
}


// ************************************************************************* //
