/*--------------------------------*- C++ -*----------------------------------*\
| =========                 |                                                 |
| \\      /  F ield         | OpenFOAM: The Open Source CFD Toolbox           |
|  \\    /   O peration     | Version:  2306                                  |
|   \\  /    A nd           | Website:  www.openfoam.com                      |
|    \\/     M anipulation  |                                                 |
\*---------------------------------------------------------------------------*/
FoamFile
{
    version     2.0;
    format      ascii;
    arch        "LSB;label=32;scalar=64";
    class       volScalarField;
    location    "1.1";
    object      p;
}
// * * * * * * * * * * * * * * * * * * * * * * * * * * * * * * * * * * * * * //

dimensions      [0 2 -2 0 0 0 0];

internalField   nonuniform List<scalar> 
288632
(
38.9267
38.9189
38.928
38.9478
38.9763
39.0124
39.0551
39.0978
39.1785
39.0109
39.419
39.124
39.2654
0.184426
0.321184
-0.139812
0.13603
0.0550277
0.0472181
0.0429763
0.0369964
0.0298493
0.0218463
0.0128402
0.00409809
38.9207
38.9171
38.9269
38.9469
38.9755
39.0116
39.0544
39.0972
39.1776
39.0106
39.4181
39.1228
39.2654
0.184434
0.322048
-0.140776
0.135609
0.0544372
0.046663
0.0425045
0.0366092
0.0295481
0.0216317
0.0127106
0.00405368
38.917
38.9147
38.925
38.9451
38.9736
39.0098
39.0527
39.0958
39.1756
39.011
39.4165
39.1217
39.2654
0.183505
0.319718
-0.142541
0.134043
0.0531167
0.0455394
0.0415555
0.0358333
0.0289459
0.0212029
0.0124538
0.00396794
38.9129
38.9114
38.9221
38.9423
38.9709
39.0071
39.0501
39.0936
39.1725
39.0114
39.4138
39.1209
39.2653
0.181842
0.318509
-0.144791
0.1321
0.0512422
0.0438799
0.0401454
0.0346798
0.028051
0.0205659
0.0120726
0.00384115
38.9085
38.9075
38.9184
38.9387
38.9672
39.0034
39.0466
39.0906
39.1683
39.0119
39.4104
39.12
39.265
0.179323
0.315008
-0.147933
0.129331
0.0487509
0.0416974
0.0382918
0.0331637
0.0268751
0.019729
0.0115722
0.00367491
38.9037
38.903
38.914
38.9342
38.9627
38.9989
39.0423
39.0869
39.1633
39.0125
39.4062
39.1189
39.2645
0.175529
0.311417
-0.151697
0.125924
0.0456975
0.039022
0.0360192
0.0313053
0.0254338
0.0187035
0.0109592
0.00347135
38.8986
38.898
38.909
38.9291
38.9574
38.9936
39.0371
39.0824
39.1575
39.0136
39.4015
39.1177
39.264
0.170959
0.306927
-0.156101
0.121906
0.0421187
0.0358883
0.033358
0.0291294
0.0237467
0.0175031
0.0102417
0.00323322
38.8932
38.8926
38.9035
38.9234
38.9515
38.9875
39.0311
39.0771
39.1509
39.015
39.3964
39.1168
39.2638
0.165683
0.301772
-0.161081
0.117333
0.0380624
0.0323385
0.0303442
0.0266658
0.0218368
0.0161445
0.00942985
0.00296378
38.8875
38.8868
38.8975
38.9171
38.945
38.9808
39.0245
39.0712
39.1437
39.0162
39.3921
39.1164
39.2641
0.159781
0.29603
-0.166573
0.112269
0.0335837
0.0284214
0.0270196
0.0239489
0.019731
0.0146468
0.00853486
0.00266682
38.8815
38.8806
38.8911
38.9104
38.9379
38.9735
39.0173
39.0647
39.1362
39.0175
39.3885
39.1169
39.2652
0.153343
0.289791
-0.172501
0.10679
0.0287454
0.024192
0.0234313
0.0210172
0.0174593
0.0130313
0.0075696
0.0023466
38.8754
38.8743
38.8845
38.9034
38.9305
38.9659
39.0097
39.0578
39.1285
39.0198
39.3853
39.1184
39.2675
0.146465
0.283149
-0.178785
0.100976
0.0236167
0.0197113
0.0196312
0.0179136
0.0150548
0.0113216
0.00654822
0.00200779
38.8692
38.8679
38.8777
38.8962
38.9228
38.9579
39.0017
39.0506
39.121
39.023
39.383
39.1215
39.2714
0.139253
0.276207
-0.185332
0.0949142
0.0182734
0.0150456
0.0156758
0.0146841
0.0125535
0.00954343
0.00548598
0.00165544
38.863
38.8615
38.8709
38.8889
38.915
38.9497
38.9936
39.0433
39.1138
39.0273
39.3818
39.1263
39.2773
0.131813
0.269075
-0.192043
0.0886991
0.0127966
0.0102657
0.0116252
0.0113779
0.00999335
0.00772381
0.00439912
0.00129493
38.8569
38.8552
38.8642
38.8816
38.9072
38.9416
38.9855
39.0361
39.1072
39.0327
39.382
39.1331
39.2855
0.124268
0.261863
-0.198816
0.0824274
0.00727136
0.00544591
0.00754243
0.0080465
0.00741435
0.00589114
0.00330459
0.00093189
38.851
38.8491
38.8576
38.8744
38.8995
38.9336
38.9775
39.0291
39.1014
39.0393
39.384
39.1424
39.2962
0.116718
0.254684
-0.205545
0.0761999
0.00178594
0.000663034
0.00349249
0.00474292
0.0048575
0.00407458
0.0022198
0.000572113
38.8455
38.8433
38.8513
38.8676
38.8921
38.9258
38.9699
39.0226
39.0966
39.0472
39.3877
39.1541
39.3098
0.10931
0.247654
-0.212124
0.0701209
-0.00357069
-0.00400498
-0.0004587
0.00152084
0.00236433
0.00230358
0.00116236
0.000221439
38.8404
38.8379
38.8454
38.8611
38.8851
38.9185
38.9628
39.0166
39.0927
39.0561
39.3933
39.1682
39.3259
0.10213
0.240885
-0.218429
0.0642795
-0.00870855
-0.00848055
-0.00424568
-0.00156643
-2.39538e-05
0.000607412
0.000149724
-0.000114334
38.8358
38.833
38.84
38.8551
38.8786
38.9117
38.9563
39.0113
39.0899
39.0659
39.4005
39.1843
39.3446
0.0953433
0.234478
-0.224355
0.0587756
-0.0135409
-0.0126879
-0.00780448
-0.00446686
-0.0022672
-0.00098546
-0.000801106
-0.000429561
38.8318
38.8287
38.8352
38.8497
38.8727
38.9056
38.9505
39.0069
39.088
39.0761
39.4089
39.2019
39.3651
0.089028
0.228519
-0.229799
0.0537018
-0.0179838
-0.0165542
-0.0110739
-0.00713072
-0.00432704
-0.00244783
-0.0016739
-0.000718856
38.8286
38.8251
38.831
38.845
38.8675
38.9003
38.9454
39.0032
39.087
39.0864
39.4181
39.2204
39.3866
0.0832933
0.223428
-0.234656
0.0491452
-0.0219581
-0.0200112
-0.0139965
-0.00951154
-0.00616761
-0.00375427
-0.0024535
-0.000977198
38.8262
38.8222
38.8275
38.841
38.8631
38.8957
38.9412
39.0004
39.0865
39.0963
39.4274
39.2387
39.4082
0.0785427
0.216651
-0.23892
0.0451699
-0.0253917
-0.0229971
-0.0165204
-0.0115671
-0.00775635
-0.00488174
-0.0031262
-0.00120002
38.8247
38.8201
38.8248
38.8378
38.8596
38.8921
38.9379
38.9983
39.0866
39.1053
39.4363
39.2557
39.4283
0.0756996
0.216541
-0.242002
0.0420796
-0.0282059
-0.0254568
-0.0185997
-0.0132603
-0.00906474
-0.00581007
-0.00367992
-0.00138332
38.8244
38.8188
38.8228
38.8354
38.8569
38.8893
38.9355
38.9968
39.0869
39.1126
39.444
39.27
39.4457
0.0708791
0.210729
-0.244851
0.0389897
-0.0304714
-0.0273528
-0.020197
-0.0145603
-0.010069
-0.00652241
-0.0041046
-0.00152374
38.8248
38.8182
38.8216
38.8338
38.8552
38.8875
38.9339
38.996
39.0872
39.118
39.4494
39.2807
39.4591
0.0683387
0.209615
-0.246381
0.0379465
-0.0317902
-0.0286153
-0.021279
-0.0154428
-0.0107506
-0.00700574
-0.00439244
-0.00161866
38.8298
38.8185
38.8211
38.8331
38.8544
38.8867
38.9332
38.9957
39.0876
39.1212
39.4532
39.2861
39.468
0.0665872
0.207184
-0.247064
0.036476
-0.0326811
-0.0292946
-0.0218411
-0.0158961
-0.0110992
-0.00725253
-0.00453805
-0.00166563
38.92
38.9164
38.9262
38.9461
38.9746
39.0106
39.0533
39.096
39.1763
39.0091
39.4165
39.1215
39.2643
0.184109
0.321441
-0.140162
0.134875
0.0547504
0.0470515
0.0429214
0.0370278
0.0299374
0.021958
0.0129375
0.00414237
38.914
38.9146
38.9251
38.9452
38.9737
39.0098
39.0526
39.0954
39.1754
39.0099
39.4124
39.1202
39.2642
0.184155
0.322257
-0.141135
0.134435
0.0541435
0.0464842
0.0424418
0.0366348
0.0296319
0.0217405
0.0128064
0.00409748
38.9103
38.9122
38.9232
38.9433
38.9719
39.008
39.0508
39.0939
39.1733
39.0105
39.4099
39.1191
39.2643
0.183216
0.319897
-0.142929
0.132848
0.0528086
0.0453441
0.0414789
0.0358481
0.0290217
0.0213062
0.0125463
0.00401072
38.9062
38.9089
38.9203
38.9405
38.969
39.0052
39.0482
39.0917
39.17
39.011
39.4067
39.1181
39.2642
0.181526
0.318626
-0.145226
0.130861
0.0509003
0.0436587
0.0400481
0.0346785
0.0281148
0.0206609
0.0121604
0.0038824
38.9018
38.905
38.9166
38.9369
38.9653
39.0014
39.0446
39.0886
39.1658
39.0114
39.4028
39.117
39.2639
0.178952
0.315084
-0.148413
0.128046
0.0483687
0.0414422
0.0381672
0.0331411
0.026923
0.0198131
0.0116536
0.00371411
38.8971
38.9004
38.9122
38.9324
38.9608
38.9968
39.0401
39.0846
39.1605
39.0121
39.3981
39.1157
39.2633
0.175113
0.31141
-0.152244
0.124578
0.0452651
0.0387251
0.0358609
0.0312562
0.025462
0.018774
0.0110327
0.00350801
38.892
38.8954
38.9071
38.9272
38.9554
38.9914
39.0347
39.0799
39.1544
39.0131
39.3928
39.1142
39.2627
0.170477
0.306833
-0.156727
0.120489
0.0416269
0.035542
0.0331596
0.0290491
0.0237515
0.0175577
0.010306
0.00326686
38.8865
38.8899
38.9015
38.9214
38.9494
38.9852
39.0286
39.0744
39.1475
39.0139
39.3876
39.113
39.2622
0.165122
0.301579
-0.161797
0.115835
0.0375024
0.0319355
0.0300999
0.0265495
0.0218149
0.0161807
0.00948335
0.00299397
38.8808
38.8841
38.8955
38.9151
38.9428
38.9784
39.0218
39.0682
39.1399
39.0144
39.3831
39.1122
39.2623
0.159133
0.295726
-0.16739
0.110681
0.0329474
0.0279548
0.0267238
0.0237924
0.0196791
0.0146623
0.00857635
0.00269315
38.8748
38.8779
38.8891
38.9083
38.9356
38.9709
39.0143
39.0613
39.1319
39.0154
39.3786
39.1121
39.263
0.152598
0.289365
-0.173428
0.105102
0.0280254
0.0236558
0.0230791
0.0208166
0.0173746
0.0130241
0.00759792
0.00236869
38.8686
38.8716
38.8824
38.9012
38.9281
38.9631
39.0064
39.054
39.1237
39.0172
39.3746
39.113
39.2649
0.145618
0.282591
-0.179831
0.0991805
0.0228066
0.0191002
0.0192183
0.0176655
0.0149347
0.0112901
0.00656236
0.0020253
38.8624
38.8652
38.8756
38.8939
38.9202
38.9549
38.9981
39.0464
39.1155
39.0198
39.3713
39.1153
39.2682
0.138293
0.27551
-0.186503
0.093006
0.017368
0.0143552
0.0151987
0.0143858
0.0123959
0.00948613
0.00548513
0.0016681
38.8561
38.8587
38.8687
38.8865
38.9123
38.9465
38.9897
39.0386
39.1077
39.0233
39.369
39.1192
39.2734
0.130739
0.268233
-0.193345
0.0866734
0.0117918
0.00949267
0.0110812
0.0110273
0.00979685
0.00763971
0.00438266
0.00130252
38.85
38.8524
38.8619
38.8791
38.9043
38.9381
38.9812
39.0308
39.1004
39.0279
39.3681
39.1252
39.2808
0.123068
0.260872
-0.200252
0.0802816
0.00616489
0.00458825
0.0069299
0.00764232
0.00717794
0.0057796
0.00327213
0.000934296
38.8442
38.8462
38.8552
38.8719
38.8965
38.9299
38.9729
39.0233
39.0939
39.0336
39.3688
39.1334
39.2908
0.115403
0.253545
-0.207114
0.0739327
0.000576897
-0.000279918
0.00281091
0.00428474
0.00458088
0.00393537
0.00217122
0.000569292
38.8386
38.8404
38.8489
38.8649
38.8889
38.9219
38.9649
39.0162
39.0883
39.0405
39.3713
39.1439
39.3035
0.107867
0.24637
-0.213819
0.0677299
-0.00488095
-0.00503241
-0.0012087
0.00100917
0.00204787
0.00213697
0.0010978
0.000213446
38.8335
38.8349
38.8429
38.8583
38.8818
38.9143
38.9574
39.0097
39.0837
39.0484
39.3756
39.1569
39.3189
0.100593
0.239462
-0.220254
0.0617746
-0.0101179
-0.0095902
-0.00506224
-0.00213012
-0.000379163
0.00041413
6.96321e-05
-0.000127352
38.8288
38.83
38.8375
38.8523
38.8751
38.9073
38.9505
39.0039
39.0802
39.0572
39.3815
39.1719
39.3368
0.0936859
0.23293
-0.226307
0.0561644
-0.0150448
-0.0138759
-0.00868448
-0.00508015
-0.00265936
-0.00120416
-0.000896001
-0.000447366
38.8248
38.8257
38.8326
38.8468
38.8691
38.901
38.9444
38.999
39.0776
39.0665
39.3886
39.1885
39.3566
0.0872732
0.226865
-0.231862
0.050989
-0.0195754
-0.017815
-0.0120129
-0.00779022
-0.00475361
-0.00269018
-0.00178257
-0.000741118
38.8216
38.822
38.8284
38.842
38.8638
38.8954
38.9391
38.9949
39.0759
39.0759
39.3967
39.2061
39.3776
0.0814386
0.221702
-0.236816
0.0463385
-0.0236291
-0.021338
-0.014989
-0.0102129
-0.0066253
-0.00401803
-0.00257467
-0.00100349
38.8191
38.8191
38.8249
38.8379
38.8593
38.8907
38.9346
38.9916
39.0749
39.085
39.4052
39.2236
39.3986
0.0766019
0.21474
-0.241173
0.0422794
-0.0271323
-0.0243815
-0.0175596
-0.0123049
-0.00824122
-0.00516418
-0.00325824
-0.00122984
38.8177
38.8169
38.8221
38.8347
38.8556
38.8869
38.9311
38.9892
39.0744
39.0933
39.4133
39.2397
39.4184
0.0737098
0.214436
-0.244349
0.0391098
-0.030006
-0.0268887
-0.0196778
-0.0140285
-0.00957221
-0.00610802
-0.00382099
-0.0014161
38.8174
38.8156
38.8201
38.8322
38.8529
38.884
38.9284
38.9875
39.0743
39.1001
39.4204
39.2533
39.4357
0.0687898
0.208727
-0.247234
0.035936
-0.0323157
-0.0288211
-0.0213051
-0.0153521
-0.0105939
-0.00683236
-0.00425268
-0.00155881
38.8178
38.815
38.8188
38.8306
38.8511
38.8822
38.9267
38.9865
39.0744
39.105
39.4257
39.2635
39.4489
0.0662778
0.207554
-0.2488
0.0348454
-0.0336656
-0.0301118
-0.0224079
-0.0162505
-0.0112873
-0.00732387
-0.00454528
-0.00165526
38.8227
38.8153
38.8183
38.8299
38.8503
38.8813
38.926
38.9861
39.0746
39.1077
39.4299
39.2699
39.4575
0.0644852
0.20513
-0.249487
0.0334622
-0.034563
-0.0307971
-0.022979
-0.0167116
-0.0116419
-0.0075746
-0.00469317
-0.00170298
38.9147
38.9124
38.9226
38.9426
38.9709
39.0068
39.0495
39.0922
39.1718
39.0063
39.4119
39.1176
39.2616
0.183355
0.319647
-0.140491
0.132648
0.0544093
0.0469609
0.0430189
0.0372647
0.030253
0.0222844
0.0131996
0.00425725
38.9088
38.9106
38.9216
38.9417
38.9701
39.006
39.0487
39.0915
39.1707
39.0074
39.4069
39.1162
39.2616
0.183433
0.32046
-0.141467
0.132175
0.0537819
0.0463752
0.0425254
0.0368609
0.0299395
0.0220614
0.0130654
0.00421146
38.905
38.9082
38.9195
38.9397
38.9681
39.0041
39.0468
39.0899
39.1685
39.0081
39.4038
39.1149
39.2617
0.182454
0.318049
-0.14332
0.130548
0.0524091
0.0452024
0.0415352
0.0360528
0.0293134
0.0216162
0.012799
0.00412268
38.9009
38.9048
38.9166
38.9369
38.9653
39.0012
39.044
39.0875
39.165
39.0086
39.3999
39.1137
39.2615
0.18071
0.316681
-0.145694
0.128474
0.0504386
0.0434669
0.0400635
0.0348511
0.0283826
0.0209546
0.0124036
0.0039913
38.8965
38.9009
38.9129
38.9331
38.9615
38.9973
39.0402
39.0841
39.1604
39.0089
39.3953
39.1121
39.2609
0.178029
0.313046
-0.148979
0.125564
0.0478262
0.0411825
0.0381281
0.0332712
0.0271591
0.020085
0.0118842
0.00381893
38.8917
38.8963
38.9084
38.9286
38.9568
38.9925
39.0355
39.0798
39.1547
39.0095
39.3896
39.1104
39.26
0.174052
0.309205
-0.152945
0.121975
0.0446222
0.0383823
0.0357544
0.0313337
0.0256589
0.019019
0.0112477
0.00360779
38.8866
38.8912
38.9033
38.9233
38.9513
38.9869
39.0298
39.0746
39.148
39.0098
39.3835
39.1083
39.2588
0.169251
0.304456
-0.157586
0.117744
0.0408649
0.0351005
0.0329733
0.029064
0.0239019
0.0177706
0.0105023
0.00336065
38.881
38.8857
38.8976
38.9174
38.945
38.9804
39.0233
39.0686
39.1404
39.0095
39.3776
39.1063
39.2576
0.163714
0.299002
-0.162838
0.112927
0.0366035
0.0313806
0.0298218
0.0264927
0.0219118
0.0163568
0.00965829
0.00308087
38.8752
38.8798
38.8915
38.9109
38.9382
38.9732
39.016
39.0617
39.132
39.0093
39.3716
39.1045
39.2567
0.157519
0.292926
-0.168635
0.107591
0.0318951
0.027273
0.0263429
0.0236551
0.0197162
0.0147972
0.00872732
0.00277232
38.8692
38.8736
38.885
38.904
38.9308
38.9655
39.008
39.0541
39.123
39.0094
39.3653
39.1032
39.2562
0.150755
0.286318
-0.174899
0.101814
0.0268048
0.0228346
0.0225853
0.0205912
0.0173459
0.0131138
0.0077226
0.00243937
38.863
38.8671
38.8782
38.8967
38.923
38.9572
38.9995
39.046
39.1137
39.0101
39.3592
39.1027
39.2565
0.143527
0.279281
-0.18154
0.0956773
0.0214048
0.0181288
0.0186029
0.0173451
0.0148353
0.0113311
0.00665873
0.00208684
38.8567
38.8606
38.8712
38.8892
38.9149
38.9486
38.9906
39.0375
39.1043
39.0113
39.3535
39.1032
39.2579
0.13594
0.271921
-0.188464
0.0892755
0.0157743
0.0132247
0.0144545
0.0139647
0.0122215
0.00947564
0.00555152
0.00171995
38.8504
38.8541
38.8642
38.8816
38.9067
38.9398
38.9815
39.0287
39.095
39.0133
39.3485
39.1052
39.2609
0.12811
0.264353
-0.19557
0.0827065
0.00999819
0.00819633
0.0102028
0.0105013
0.00954437
0.00757554
0.00441781
0.00134427
38.8442
38.8477
38.8573
38.8741
38.8984
38.9309
38.9723
39.0198
39.0863
39.0162
39.3447
39.1089
39.2659
0.12016
0.256696
-0.202748
0.076073
0.00416613
0.00312176
0.00591381
0.00700879
0.00684541
0.00566039
0.00327525
0.000965691
38.8383
38.8414
38.8505
38.8666
38.8903
38.9222
38.9633
39.0112
39.0782
39.02
39.3423
39.1147
39.2732
0.112218
0.249071
-0.209881
0.0694805
-0.00162878
-0.00191805
0.00165592
0.00354272
0.00416761
0.00376065
0.00214202
0.000590239
38.8326
38.8355
38.8441
38.8595
38.8824
38.9137
38.9545
39.0029
39.071
39.0248
39.3415
39.1228
39.2832
0.104407
0.241601
-0.216854
0.0630359
-0.00729178
-0.00684077
-0.00250143
0.000159583
0.00155456
0.00190722
0.00103656
0.000224028
38.8274
38.83
38.838
38.8527
38.8749
38.9057
38.9463
38.9953
39.0648
39.0307
39.3426
39.1332
39.2958
0.0968599
0.234411
-0.223548
0.0568449
-0.0127283
-0.0115643
-0.00648907
-0.00308444
-0.000950409
0.000130813
-2.28133e-05
-0.000126867
38.8228
38.825
38.8324
38.8465
38.868
38.8982
38.9387
38.9884
39.0597
39.0374
39.3453
39.1458
39.3109
0.0896972
0.227619
-0.229843
0.05101
-0.0178452
-0.016008
-0.0102393
-0.00613442
-0.00330495
-0.00153857
-0.00101821
-0.000456516
38.8187
38.8206
38.8275
38.8408
38.8617
38.8914
38.9318
38.9825
39.0556
39.0447
39.3496
39.1602
39.3282
0.0830381
0.221336
-0.235624
0.0456282
-0.022553
-0.0200943
-0.0136869
-0.00893764
-0.00546846
-0.00307218
-0.00193251
-0.00075925
38.8154
38.8169
38.8231
38.8358
38.8561
38.8854
38.9259
38.9775
39.0525
39.0522
39.3552
39.1757
39.3468
0.0769993
0.216088
-0.240772
0.0407866
-0.0267668
-0.0237504
-0.0167711
-0.0114447
-0.00740288
-0.00444313
-0.0027497
-0.00102976
38.8129
38.8139
38.8195
38.8316
38.8514
38.8804
38.9209
38.9735
39.0503
39.0597
39.3613
39.1912
39.3657
0.0719689
0.208774
-0.245309
0.0365475
-0.0304098
-0.0269102
-0.0194361
-0.0136105
-0.00907363
-0.00562694
-0.00345519
-0.00126323
38.8114
38.8117
38.8167
38.8283
38.8475
38.8763
38.9169
38.9703
39.0489
39.0665
39.3674
39.2056
39.3837
0.0688471
0.207693
-0.24868
0.0332471
-0.0333984
-0.0295121
-0.0216327
-0.0153955
-0.0104502
-0.00660209
-0.00403618
-0.00145541
38.8111
38.8104
38.8147
38.8257
38.8447
38.8732
38.9139
38.9681
39.048
39.0723
39.3728
39.2179
39.3993
0.0638636
0.202603
-0.251624
0.0298562
-0.0358098
-0.031524
-0.0233215
-0.0167666
-0.0115072
-0.00735069
-0.00448202
-0.00160271
38.8115
38.8097
38.8134
38.8241
38.8428
38.8712
38.9119
38.9667
39.0475
39.0765
39.3768
39.2274
39.4115
0.0611976
0.201147
-0.253282
0.0287329
-0.0372063
-0.0328665
-0.024466
-0.0176974
-0.0122248
-0.00785877
-0.00478429
-0.00170229
38.8164
38.8101
38.8128
38.8234
38.8419
38.8702
38.9111
38.9661
39.0474
39.0789
39.3801
39.2317
39.4192
0.0593693
0.198621
-0.253973
0.0274026
-0.0381371
-0.033574
-0.0250583
-0.0181755
-0.0125919
-0.00811812
-0.00493719
-0.00175165
38.9084
38.9069
38.9173
38.9373
38.9655
39.0012
39.0436
39.0863
39.1648
39.0021
39.4047
39.1124
39.257
0.181342
0.317336
-0.140546
0.1293
0.0540012
0.0469537
0.0432671
0.0377055
0.0307963
0.0228269
0.0136279
0.00444304
38.9024
38.9051
38.9163
38.9363
38.9646
39.0003
39.0428
39.0856
39.1637
39.0032
39.3991
39.1107
39.2571
0.181382
0.318108
-0.141553
0.128785
0.0533431
0.0463403
0.0427527
0.0372857
0.030471
0.0225959
0.0134891
0.00439591
38.8987
38.9025
38.9142
38.9344
38.9626
38.9983
39.0408
39.0839
39.1612
39.0039
39.3954
39.1092
39.2571
0.180339
0.315606
-0.143487
0.127086
0.0519088
0.045118
0.0417215
0.0364455
0.029821
0.0221343
0.0132133
0.0043041
38.8945
38.8992
38.9113
38.9314
38.9596
38.9952
39.0377
39.0811
39.1574
39.0042
39.3908
39.1075
39.2566
0.178492
0.314087
-0.145988
0.1249
0.0498482
0.0433066
0.0401884
0.0351957
0.0288544
0.0214481
0.0128037
0.00416815
38.89
38.8952
38.9074
38.9276
38.9556
38.9911
39.0336
39.0773
39.1523
39.0043
39.3851
39.1054
39.2555
0.17563
0.310301
-0.149428
0.121842
0.0471131
0.0409203
0.0381711
0.0335519
0.0275834
0.020546
0.0122654
0.0039897
38.8852
38.8905
38.9029
38.9229
38.9507
38.986
39.0285
39.0725
39.1459
39.0044
39.3782
39.1029
39.2538
0.171438
0.306215
-0.153593
0.11807
0.0437579
0.0379949
0.0356961
0.0315353
0.0260243
0.0194395
0.0116053
0.003771
38.88
38.8854
38.8977
38.9175
38.945
38.9801
39.0224
39.0667
39.1384
39.0036
39.3712
39.1
39.2517
0.166392
0.3012
-0.158469
0.11362
0.0398207
0.0345645
0.0327947
0.0291717
0.0241974
0.018143
0.0108321
0.00351488
38.8744
38.8798
38.8919
38.9114
38.9385
38.9732
39.0153
39.0598
39.1297
39.0022
39.3638
39.0967
39.2492
0.160561
0.29544
-0.163991
0.108552
0.0353524
0.0306739
0.0295049
0.0264924
0.022127
0.016674
0.00995596
0.00322477
38.8685
38.8738
38.8856
38.9047
38.9314
38.9656
39.0073
39.052
39.12
39.0008
39.3555
39.0933
39.2465
0.154037
0.289021
-0.170092
0.102937
0.0304119
0.0263747
0.0258709
0.0235337
0.0198412
0.0150524
0.00898901
0.00290463
38.8624
38.8674
38.8789
38.8975
38.9236
38.9573
38.9986
39.0433
39.1095
38.9995
39.3465
39.0899
39.2438
0.146909
0.282038
-0.176692
0.0968545
0.0250665
0.0217259
0.0219429
0.0203368
0.0173719
0.013301
0.00794479
0.00255894
38.8561
38.8609
38.872
38.89
38.9155
38.9485
38.9892
39.0339
39.0985
38.9984
39.3371
39.0869
39.2413
0.139293
0.274596
-0.183697
0.0903913
0.0193915
0.0167932
0.0177769
0.0169472
0.0147547
0.0114451
0.00683833
0.00219265
38.8497
38.8543
38.8649
38.8823
38.907
38.9392
38.9794
39.024
39.0872
38.9975
39.3276
39.0844
39.2393
0.131289
0.266809
-0.191009
0.0836443
0.0134695
0.0116483
0.0134336
0.0134149
0.0120279
0.00951193
0.00568597
0.00181118
38.8434
38.8476
38.8577
38.8744
38.8983
38.9297
38.9692
39.0136
39.0758
38.9971
39.3182
39.0827
39.2382
0.123026
0.258798
-0.198519
0.0767166
0.00738932
0.00636875
0.00897867
0.00979293
0.00923281
0.00753085
0.00450517
0.0014203
38.8371
38.8411
38.8506
38.8666
38.8896
38.9202
38.9589
39.0032
39.0648
38.9971
39.3096
39.0823
39.2384
0.114632
0.250686
-0.206111
0.0697157
0.00124527
0.00103628
0.00448109
0.00613767
0.00641288
0.0055326
0.00331427
0.00102611
38.8311
38.8347
38.8437
38.8588
38.881
38.9107
38.9488
38.9928
39.0542
38.9979
39.302
39.0836
39.2405
0.106237
0.242603
-0.213662
0.0627527
-0.00486451
-0.00426398
1.25773e-05
0.00250732
0.00361296
0.00354899
0.00213224
0.000634896
38.8254
38.8287
38.837
38.8514
38.8726
38.9015
38.9389
38.9828
39.0445
38.9995
39.2959
39.0869
39.2449
0.0979784
0.234681
-0.221049
0.0559405
-0.0108399
-0.00944523
-0.0043538
-0.00103884
0.000878748
0.00161234
0.000978364
0.000253033
38.8201
38.8231
38.8308
38.8444
38.8647
38.8927
38.9295
38.9735
39.0357
39.0019
39.2917
39.0926
39.2519
0.0899987
0.227051
-0.228144
0.049392
-0.0165807
-0.0144207
-0.00854515
-0.00444174
-0.00174427
-0.000245134
-0.000128179
-0.000113117
38.8153
38.818
38.825
38.8378
38.8573
38.8845
38.9208
38.965
39.0281
39.0052
39.2894
39.1006
39.2615
0.0824178
0.219848
-0.234821
0.0432167
-0.0219879
-0.0191048
-0.0124899
-0.00764343
-0.00421151
-0.00199189
-0.0011686
-0.000457337
38.8112
38.8135
38.8199
38.8319
38.8506
38.8771
38.9129
38.9575
39.0217
39.0092
39.2889
39.1105
39.2735
0.0753798
0.21321
-0.240951
0.0375187
-0.0269653
-0.0234151
-0.016119
-0.0105882
-0.00648009
-0.00359764
-0.00212489
-0.000773659
38.8078
38.8096
38.8154
38.8267
38.8447
38.8705
38.9061
38.9511
39.0165
39.0137
39.2899
39.1219
39.2872
0.0690043
0.20788
-0.246396
0.0323902
-0.0314207
-0.0272737
-0.0193676
-0.0132235
-0.0085098
-0.00503397
-0.00298011
-0.00105649
38.8053
38.8066
38.8117
38.8223
38.8396
38.8649
38.9002
38.9458
39.0124
39.0184
39.292
39.1336
39.3015
0.0639322
0.200528
-0.251205
0.0278859
-0.0352703
-0.0306103
-0.0221766
-0.0155016
-0.0102639
-0.00627491
-0.00371884
-0.00130074
38.8037
38.8044
38.8088
38.8188
38.8355
38.8604
38.8955
38.9416
39.0094
39.0228
39.2944
39.1444
39.3155
0.0598071
0.197812
-0.254856
0.0244548
-0.0384249
-0.0333569
-0.0244928
-0.0173801
-0.0117098
-0.00729764
-0.00432755
-0.0015019
38.8033
38.803
38.8067
38.8162
38.8324
38.8569
38.892
38.9385
39.0072
39.0268
39.2967
39.1534
39.3277
0.0550604
0.193179
-0.257984
0.0207471
-0.0409978
-0.0354896
-0.0262755
-0.0188237
-0.0128206
-0.00808312
-0.00479486
-0.00165615
38.8037
38.8023
38.8053
38.8144
38.8304
38.8547
38.8896
38.9365
39.0059
39.0299
39.2981
39.1602
39.3373
0.0521948
0.191617
-0.259747
0.0196316
-0.0424524
-0.0369097
-0.0274834
-0.019804
-0.0135749
-0.00861639
-0.00511185
-0.00176052
38.8086
38.8026
38.8048
38.8137
38.8294
38.8536
38.8886
38.9357
39.0053
39.0319
39.2992
39.1646
39.3433
0.0503115
0.189052
-0.260482
0.0182299
-0.0434433
-0.0376544
-0.0281091
-0.0203081
-0.0139613
-0.00888909
-0.00527247
-0.00181239
38.901
38.8999
38.9105
38.9303
38.9582
38.9936
39.0358
39.0786
39.1556
38.9963
39.3952
39.1053
39.2506
0.178579
0.314114
-0.140437
0.124918
0.0535498
0.0470516
0.0436757
0.0383591
0.031575
0.0235914
0.0142258
0.00470085
38.895
38.8981
38.9094
38.9293
38.9573
38.9926
39.0349
39.0777
39.1543
38.9974
39.3892
39.1035
39.2506
0.178489
0.314836
-0.141484
0.124346
0.0528487
0.0464038
0.0431338
0.0379179
0.0312339
0.0233497
0.014081
0.00465188
38.8912
38.8955
38.9073
38.9273
38.9552
38.9905
39.0327
39.0757
39.1515
38.998
39.3849
39.1016
39.2504
0.177349
0.31221
-0.143528
0.122552
0.0513356
0.0451136
0.0420476
0.0370348
0.0305521
0.0228664
0.0137926
0.00455606
38.887
38.8921
38.9043
38.9243
38.952
38.9872
39.0294
39.0726
39.1473
38.9981
39.3792
39.0994
39.2495
0.17536
0.310485
-0.146199
0.120211
0.0491497
0.0432
0.0404319
0.0357208
0.0295378
0.0221476
0.0133641
0.00441405
38.8825
38.888
38.9004
38.9203
38.9479
38.9829
39.0249
39.0683
39.1415
38.998
39.3721
39.0965
39.2476
0.172253
0.306491
-0.149855
0.116954
0.0462499
0.0406778
0.0383052
0.0339918
0.0282035
0.0212019
0.0128007
0.00422752
38.8776
38.8833
38.8957
38.9154
38.9428
38.9774
39.0192
39.0628
39.1342
38.9969
39.3643
39.093
39.2448
0.167764
0.302077
-0.154288
0.112935
0.0426911
0.0375842
0.0356944
0.0318693
0.0265658
0.0200414
0.0121093
0.00399877
38.8724
38.8781
38.8903
38.9098
38.9367
38.971
39.0125
39.056
39.1255
38.9946
39.3559
39.0888
39.2412
0.16236
0.2967
-0.159483
0.108191
0.0385117
0.0339538
0.0326316
0.0293799
0.0246454
0.0186808
0.0112988
0.00373069
38.8667
38.8723
38.8844
38.9035
38.9299
38.9637
39.0046
39.0481
39.1154
38.992
39.346
39.0838
39.2367
0.156122
0.290523
-0.165373
0.102786
0.0337647
0.029833
0.0291561
0.0265559
0.0224675
0.017138
0.0103799
0.0034268
38.8607
38.8662
38.8779
38.8965
38.9224
38.9554
38.9958
39.039
39.1041
38.9891
39.3346
39.0781
39.2314
0.149139
0.283635
-0.171885
0.0967929
0.0285113
0.0252754
0.0253136
0.0234348
0.020061
0.0154335
0.00936486
0.00309118
38.8545
38.8598
38.8711
38.8891
38.9142
38.9465
38.9861
39.0289
39.0916
38.9858
39.3218
39.0717
39.2254
0.14151
0.276138
-0.178937
0.0902951
0.0228218
0.0203423
0.0211564
0.0200592
0.017459
0.0135911
0.00826777
0.00272845
38.8481
38.8531
38.864
38.8813
38.9055
38.9369
38.9756
39.0179
39.0783
38.9822
39.3078
39.0649
39.2186
0.133342
0.268144
-0.186433
0.083386
0.0167754
0.0151025
0.0167427
0.0164768
0.0146985
0.0116369
0.00710425
0.00234377
38.8416
38.8463
38.8566
38.8732
38.8965
38.9269
38.9645
39.006
39.0644
38.9783
39.2928
39.0577
39.2112
0.12476
0.259773
-0.194266
0.0761675
0.0104592
0.00963159
0.0121365
0.0127397
0.0118197
0.00959946
0.00589132
0.00194277
38.8351
38.8395
38.8492
38.865
38.8873
38.9165
38.953
38.9936
39.0501
38.9743
39.2773
39.0504
39.2035
0.115892
0.251153
-0.202321
0.068749
0.00396746
0.0040114
0.00740701
0.008904
0.00886599
0.00750952
0.00464728
0.0015315
38.8287
38.8328
38.8419
38.8567
38.878
38.906
38.9413
38.9809
39.0358
38.9703
39.2617
39.0434
39.1961
0.106876
0.242417
-0.210474
0.0612457
-0.00259947
-0.00167118
0.00262724
0.00502908
0.00588302
0.00539944
0.00339141
0.00111634
38.8226
38.8263
38.8347
38.8487
38.8688
38.8956
38.9296
38.9683
39.0218
38.9665
39.2466
39.0374
39.1895
0.0978475
0.233706
-0.218595
0.053777
-0.00913659
-0.00732536
-0.00212648
0.00117674
0.00291838
0.00330282
0.00214372
0.000703922
38.8168
38.8202
38.8279
38.8409
38.8598
38.8854
38.9182
38.956
39.0085
38.9632
39.2327
39.0331
39.1844
0.0889654
0.225159
-0.226548
0.046464
-0.0155366
-0.0128583
-0.00677623
-0.00258994
2.05377e-05
0.00125394
0.000924612
0.000300991
38.8114
38.8144
38.8214
38.8335
38.8513
38.8757
38.9073
38.9444
38.9962
38.9606
39.2205
39.0308
39.1817
0.0803699
0.216917
-0.234199
0.0394279
-0.0216917
-0.0181769
-0.011244
-0.00620798
-0.00276207
-0.000712975
-0.000245546
-8.57171e-05
38.8065
38.8091
38.8155
38.8266
38.8434
38.8666
38.8971
38.9336
38.9852
38.9588
39.2104
39.0311
39.1816
0.0722097
0.209122
-0.241409
0.0327878
-0.0274946
-0.023189
-0.0154531
-0.00961534
-0.0053818
-0.0025643
-0.00134677
-0.000449589
38.8023
38.8045
38.8101
38.8204
38.8361
38.8583
38.8879
38.924
38.9755
38.9578
39.2024
39.0331
39.1842
0.0646232
0.201913
-0.24804
0.0266596
-0.0328408
-0.0278053
-0.0193291
-0.0127521
-0.00779276
-0.00426764
-0.00235978
-0.000784255
38.7988
38.8006
38.8055
38.8149
38.8297
38.8509
38.8797
38.9156
38.9672
38.9576
39.1964
39.0359
39.1888
0.0577213
0.196344
-0.253933
0.0211571
-0.0376299
-0.0319412
-0.0228019
-0.0155619
-0.00995168
-0.00579248
-0.00326644
-0.00108374
38.7962
38.7974
38.8016
38.8102
38.8242
38.8446
38.8728
38.9085
38.9605
38.958
39.1919
39.0394
39.1947
0.0526439
0.188575
-0.259216
0.0163261
-0.041773
-0.0355204
-0.0258073
-0.0179928
-0.0118188
-0.00711084
-0.0040502
-0.00134256
38.7946
38.7951
38.7986
38.8065
38.8198
38.8395
38.8671
38.9028
38.9552
38.9589
39.1884
39.0433
39.2008
0.0469043
0.18515
-0.263101
0.0128176
-0.0451467
-0.0384657
-0.0282868
-0.0199985
-0.013359
-0.00819815
-0.00469647
-0.00155586
38.7942
38.7937
38.7964
38.8037
38.8164
38.8356
38.8628
38.8986
38.9512
38.96
39.1856
39.0468
39.2063
0.0427038
0.180506
-0.266712
0.00870887
-0.0479839
-0.0407665
-0.0301975
-0.0215408
-0.014543
-0.0090337
-0.00519289
-0.00171955
38.7945
38.793
38.7949
38.8019
38.8142
38.833
38.86
38.8958
38.9486
38.9611
39.183
39.0495
39.2104
0.0395831
0.178624
-0.268503
0.00757338
-0.0494714
-0.042286
-0.0314912
-0.0225884
-0.0153472
-0.00960121
-0.00552988
-0.0018304
38.7994
38.7933
38.7944
38.801
38.8132
38.8318
38.8587
38.8945
38.9474
38.9625
39.1816
39.0509
39.2126
0.0376049
0.176026
-0.269466
0.00613843
-0.0505927
-0.0430941
-0.0321646
-0.0231284
-0.01576
-0.00989215
-0.00570107
-0.00188572
38.8925
38.8916
38.9022
38.9217
38.9493
38.9843
39.0261
39.0689
39.1442
38.9892
39.3834
39.0963
39.2422
0.17505
0.310099
-0.140504
0.119835
0.0530201
0.0472461
0.0442535
0.0392364
0.0325995
0.024586
0.0149984
0.00503235
38.8865
38.8897
38.9011
38.9207
38.9483
38.9832
39.0251
39.0679
39.1428
38.9903
39.3771
39.0944
39.2422
0.174814
0.310756
-0.14161
0.119194
0.0522651
0.0465557
0.0436772
0.0387686
0.0322387
0.024331
0.014846
0.00498107
38.8827
38.8872
38.8989
38.9186
38.9461
38.9809
39.0227
39.0656
39.1396
38.9907
39.372
39.0921
39.2417
0.173538
0.30797
-0.143795
0.117281
0.0506516
0.0451804
0.042522
0.0378319
0.0315172
0.0238206
0.0145421
0.00488028
38.8785
38.8837
38.8958
38.9155
38.9428
38.9774
39.019
39.0619
39.1348
38.9906
39.3651
39.0892
39.2401
0.17137
0.30598
-0.146679
0.11474
0.048308
0.0431384