/*--------------------------------*- C++ -*----------------------------------*\
  =========                 |
  \\      /  F ield         | OpenFOAM: The Open Source CFD Toolbox
   \\    /   O peration     | Website:  https://openfoam.org
    \\  /    A nd           | Version:  11
     \\/     M anipulation  |
\*---------------------------------------------------------------------------*/
FoamFile
{
    format      ascii;
    class       volScalarField;
    location    "61";
    object      epsilon;
}
// * * * * * * * * * * * * * * * * * * * * * * * * * * * * * * * * * * * * * //

dimensions      [0 2 -3 0 0 0 0];

internalField   nonuniform List<scalar> 
729
(
1669.98
1486.52
1496.99
1500.07
1504.63
1502.11
1506.4
1492.72
1698.55
1.74971
0.240301
0.246042
0.247876
0.250107
0.472788
1.52931
2.02221
13.1102
1.10139
0.000201674
1.01065e-05
1.01267e-05
1.03665e-05
0.000162428
0.00220081
0.00739964
1.34768
1.14894
0.000195522
1.91499e-06
1.85598e-06
1.85108e-06
1.87252e-06
4.83801e-06
0.00168333
1.17894
1.15977
0.000197732
1.90108e-06
1.84536e-06
1.84316e-06
1.84608e-06
3.82145e-06
0.00162783
1.18104
1.16411
0.000198994
1.89663e-06
1.83794e-06
1.83701e-06
1.83725e-06
2.53708e-06
0.000861063
1.17719
1.16595
0.000199473
1.89354e-06
1.83531e-06
1.83418e-06
1.83407e-06
2.24747e-06
0.000682116
1.17754
1.17154
0.000200648
1.8929e-06
1.83413e-06
1.83153e-06
1.83194e-06
2.03445e-06
0.000428151
1.17563
1.19497
0.000205293
1.95586e-06
1.86451e-06
1.82916e-06
1.82999e-06
1.92427e-06
0.00027462
1.17461
1097.79
595.78
603.186
605.173
608.297
606.532
608.888
599.272
1125.77
1.63684
0.140137
0.139328
0.140459
0.141935
0.314408
1.02722
1.54336
12.7896
1.00875
0.00446727
0.00030322
0.000300758
0.00030065
0.000448553
0.00237978
0.0886498
1.24654
1.05281
0.00459661
0.000281086
0.000277838
0.000277373
0.000277647
0.000370229
0.0297702
1.08071
1.06286
0.00461584
0.000279354
0.000276487
0.000276342
0.000276383
0.000343933
0.027151
1.08255
1.06684
0.00464949
0.000278705
0.000275551
0.000275472
0.000275471
0.000303405
0.0158039
1.07899
1.06853
0.0046624
0.000278292
0.000275256
0.00027511
0.000275084
0.000291432
0.0120313
1.07931
1.07374
0.00468123
0.000278178
0.000275092
0.000274808
0.00027488
0.000283725
0.00849902
1.07753
1.09563
0.00475472
0.00028501
0.000278459
0.000274496
0.000274615
0.000279074
0.00582421
1.07658
1.56159
365.905
375.034
376.922
379.885
378.199
380.206
370.841
1.59802
0.0037523
0.121197
0.118729
0.119804
0.121303
0.304738
1.04463
1.57869
0.0287288
0.00228717
0.00474598
0.000347176
0.000344216
0.000344175
0.000532104
0.00281756
0.0910282
0.00284362
0.00238755
0.00488374
0.000320112
0.000316269
0.000315715
0.000316038
0.000435883
0.0309066
0.00245141
0.0024107
0.00490222
0.000318135
0.000314727
0.000314538
0.000314568
0.00040222
0.0279128
0.00245531
0.00241949
0.00493997
0.000317385
0.000313642
0.000313552
0.000313543
0.000349099
0.0164671
0.00244724
0.00242331
0.00495409
0.000316921
0.000313292
0.000313124
0.000313093
0.00033368
0.0125053
0.00244795
0.00243524
0.00497473
0.000316794
0.000313111
0.000312766
0.000312837
0.00032375
0.00893401
0.00244386
0.00248537
0.00505508
0.00032477
0.000317032
0.000312398
0.000312537
0.000317921
0.00616471
0.00244172
1.77663
277.112
285.671
287.476
289.948
288.674
290.246
282.782
1.81733
0.00529573
0.116452
0.112347
0.113482
0.115129
0.314007
1.09864
1.68369
0.0398716
0.00325176
0.00572756
0.000435068
0.000431307
0.000431338
0.000673564
0.0034866
0.106081
0.00405116
0.00339474
0.00589927
0.000400947
0.000396099
0.000395397
0.000395819
0.000555922
0.0364802
0.00348576
0.00342789
0.0059219
0.00039853
0.000394203
0.000393953
0.000393996
0.000511224
0.0327215
0.00349099
0.00344021
0.00596936
0.000397624
0.000392861
0.000392744
0.000392725
0.000439816
0.0195276
0.00347954
0.00344552
0.00598698
0.00039705
0.000392432
0.000392218
0.00039217
0.000419295
0.0148206
0.00348059
0.00346257
0.00601244
0.000396899
0.000392216
0.000391766
0.000391847
0.000406045
0.0106904
0.0034747
0.00353399
0.0061095
0.000406992
0.000397174
0.000391301
0.000391475
0.000398378
0.00742923
0.00347172
1.84415
252.144
260.09
261.831
264.024
262.979
264.331
257.983
1.88634
0.00584657
0.115555
0.110716
0.111882
0.113595
0.318442
1.11953
1.7277
0.0437415
0.00360329
0.00622502
0.000476051
0.000471939
0.000471982
0.000738342
0.00378584
0.114178
0.00449073
0.00376169
0.00641402
0.000438833
0.000433524
0.000432739
0.000433212
0.000611946
0.0394611
0.00386259
0.00379853
0.00643916
0.000436213
0.00043146
0.000431177
0.000431228
0.000562174
0.0353233
0.00386821
0.00381212
0.00649144
0.000435242
0.00042999
0.000429858
0.000429828
0.000482334
0.0211575
0.00385549
0.00381796
0.00651067
0.000434606
0.000429529
0.000429291
0.000429229
0.000459465
0.0160554
0.00385675
0.00383691
0.00653856
0.000434437
0.000429298
0.000428793
0.000428878
0.000444592
0.0116151
0.00385013
0.00391596
0.00664339
0.000445501
0.000434729
0.000428283
0.00042847
0.000436086
0.00808814
0.0038469
1.7767
277.159
285.679
287.477
289.943
288.657
290.223
282.712
1.81735
0.00531792
0.116964
0.112404
0.113543
0.115198
0.314871
1.09969
1.6951
0.0398953
0.00327379
0.00603137
0.00045323
0.000449334
0.000449303
0.00069985
0.00358339
0.112132
0.00407355
0.00341712
0.00621095
0.000417747
0.00041269
0.000411925
0.000412403
0.000580791
0.0386449
0.00350894
0.0034506
0.00623506
0.000415208
0.000410694
0.000410445
0.000410535
0.000533963
0.0346677
0.00351399
0.00346309
0.00628525
0.000414315
0.000409282
0.000409147
0.00040911
0.000458832
0.0206864
0.00350223
0.00346831
0.00630288
0.000413654
0.000408831
0.000408604
0.000408541
0.000437236
0.0156976
0.00350364
0.00348575
0.00632997
0.000413505
0.000408614
0.000408126
0.000408205
0.000423159
0.0113221
0.0034974
0.00355713
0.00643006
0.000423961
0.000413747
0.000407636
0.000407813
0.000415064
0.00786445
0.00349461
1.56178
365.982
375.043
376.918
379.873
378.169
380.165
370.732
1.59811
0.00378896
0.122297
0.118853
0.119933
0.12145
0.306576
1.04689
1.60295
0.0287683
0.00232334
0.00534438
0.000385055
0.000381804
0.000381685
0.000585924
0.00301503
0.102886
0.00288104
0.00242458
0.00549851
0.00035521
0.000350941
0.000350286
0.000350678
0.000486679
0.0351156
0.00248957
0.00244819
0.00551982
0.000352995
0.000349212
0.000349026
0.00034908
0.000448789
0.0317074
0.00249328
0.00245727
0.00556249
0.000352232
0.000347992
0.000347879
0.000347847
0.000388398
0.018721
0.00248484
0.00246097
0.00557732
0.000351642
0.000347605
0.000347413
0.00034736
0.000370926
0.0142128
0.00248596
0.00247339
0.00560081
0.000351511
0.000347413
0.000347006
0.00034708
0.000359492
0.0101627
0.00248147
0.00252359
0.00568797
0.000360278
0.000351718
0.000346592
0.000346741
0.000352829
0.00701265
0.00247955
1097.99
595.864
603.199
605.162
608.284
606.495
608.843
599.148
1125.86
1.66093
0.141719
0.139518
0.140653
0.142151
0.317081
1.03058
1.57849
12.8157
1.03243
0.00502525
0.000335763
0.000333073
0.000332908
0.000496967
0.00258974
0.10133
1.27126
1.07714
0.00517066
0.000311058
0.00030747
0.000306912
0.00030724
0.000413951
0.034139
1.10571
1.08746
0.00519295
0.000309114
0.00030596
0.000305797
0.000305852
0.000383986
0.0311462
1.10748
1.09162
0.00523148
0.000308464
0.000304917
0.000304824
0.000304795
0.000337028
0.0181214
1.10372
1.09325
0.00524516
0.000307942
0.000304588
0.000304423
0.000304378
0.000323288
0.01379
1.10425
1.09874
0.00526688
0.000307828
0.000304412
0.000304078
0.000304153
0.000314326
0.00973617
1.10226
1.12071
0.00534735
0.000315346
0.000308112
0.000303726
0.000303854
0.000308958
0.00666161
1.10142
1670.2
1486.52
1497.09
1500.11
1504.69
1502.11
1506.44
1492.67
1698.64
1.77788
0.238573
0.245827
0.24765
0.249868
0.470481
1.52628
1.99345
13.1406
1.12908
0.000169857
8.73446e-06
8.74996e-06
8.94385e-06
0.000138314
0.00202842
0.00634515
1.37658
1.17739
0.000164717
1.64534e-06
1.59636e-06
1.59217e-06
1.60967e-06
4.0914e-06
0.00145617
1.20815
1.18852
0.000166593
1.63359e-06
1.58744e-06
1.5854e-06
1.58805e-06
3.25501e-06
0.00141174
1.21016
1.19306
0.000167671
1.63016e-06
1.58132e-06
1.58046e-06
1.58067e-06
2.17243e-06
0.000745208
1.20609
1.19484
0.000168064
1.62729e-06
1.57896e-06
1.57799e-06
1.57799e-06
1.92794e-06
0.000591505
1.20666
1.20074
0.000169077
1.62697e-06
1.57802e-06
1.57578e-06
1.57611e-06
1.74777e-06
0.000370951
1.20453
1.22427
0.000172992
1.6807e-06
1.60399e-06
1.57374e-06
1.57447e-06
1.65454e-06
0.000238391
1.20363
)
;

boundaryField
{
    inlet
    {
        type            fixedValue;
        value           uniform 14.855;
    }
    outlet
    {
        type            zeroGradient;
    }
    lowerWall
    {
        type            epsilonWallFunction;
        value           nonuniform List<scalar> 
162
(
1669.98
1097.79
1.56159
1.77663
1.84415
1.7767
1.56178
1097.99
1670.2
1.74971
1.63684
0.0037523
0.00529573
0.00584657
0.00531792
0.00378896
1.66093
1.77788
1.10139
1.00875
0.00228717
0.00325176
0.00360329
0.00327379
0.00232334
1.03243
1.12908
1.14894
1.05281
0.00238755
0.00339474
0.00376169
0.00341712
0.00242458
1.07714
1.17739
1.15977
1.06286
0.0024107
0.00342789
0.00379853
0.0034506
0.00244819
1.08746
1.18852
1.16411
1.06684
0.00241949
0.00344021
0.00381212
0.00346309
0.00245727
1.09162
1.19306
1.16595
1.06853
0.00242331
0.00344552
0.00381796
0.00346831
0.00246097
1.09325
1.19484
1.17154
1.07374
0.00243524
0.00346257
0.00383691
0.00348575
0.00247339
1.09874
1.20074
1.19497
1.09563
0.00248537
0.00353399
0.00391596
0.00355713
0.00252359
1.12071
1.22427
1698.55
1125.77
1.59802
1.81733
1.88634
1.81735
1.59811
1125.86
1698.64
13.1102
12.7896
0.0287288
0.0398716
0.0437415
0.0398953
0.0287683
12.8157
13.1406
1.34768
1.24654
0.00284362
0.00405116
0.00449073
0.00407355
0.00288104
1.27126
1.37658
1.17894
1.08071
0.00245141
0.00348576
0.00386259
0.00350894
0.00248957
1.10571
1.20815
1.18104
1.08255
0.00245531
0.00349099
0.00386821
0.00351399
0.00249328
1.10748
1.21016
1.17719
1.07899
0.00244724
0.00347954
0.00385549
0.00350223
0.00248484
1.10372
1.20609
1.17754
1.07931
0.00244795
0.00348059
0.00385675
0.00350364
0.00248596
1.10425
1.20666
1.17563
1.07753
0.00244386
0.0034747
0.00385013
0.0034974
0.00248147
1.10226
1.20453
1.17461
1.07658
0.00244172
0.00347172
0.0038469
0.00349461
0.00247955
1.10142
1.20363
)
;
    }
    upperWall
    {
        type            epsilonWallFunction;
        value           nonuniform List<scalar> 
162
(
1669.98
1670.2
1.74971
1.77788
1.10139
1.12908
1.14894
1.17739
1.15977
1.18852
1.16411
1.19306
1.16595
1.19484
1.17154
1.20074
1.19497
1.22427
1486.52
1486.52
0.240301
0.238573
0.000201674
0.000169857
0.000195522
0.000164717
0.000197732
0.000166593
0.000198994
0.000167671
0.000199473
0.000168064
0.000200648
0.000169077
0.000205293
0.000172992
1496.99
1497.09
0.246042
0.245827
1.01065e-05
8.73446e-06
1.91499e-06
1.64534e-06
1.90108e-06
1.63359e-06
1.89663e-06
1.63016e-06
1.89354e-06
1.62729e-06
1.8929e-06
1.62697e-06
1.95586e-06
1.6807e-06
1500.07
1500.11
0.247876
0.24765
1.01267e-05
8.74996e-06
1.85598e-06
1.59636e-06
1.84536e-06
1.58744e-06
1.83794e-06
1.58132e-06
1.83531e-06
1.57896e-06
1.83413e-06
1.57802e-06
1.86451e-06
1.60399e-06
1504.63
1504.69
0.250107
0.249868
1.03665e-05
8.94385e-06
1.85108e-06
1.59217e-06
1.84316e-06
1.5854e-06
1.83701e-06
1.58046e-06
1.83418e-06
1.57799e-06
1.83153e-06
1.57578e-06
1.82916e-06
1.57374e-06
1502.11
1502.11
0.472788
0.470481
0.000162428
0.000138314
1.87252e-06
1.60967e-06
1.84608e-06
1.58805e-06
1.83725e-06
1.58067e-06
1.83407e-06
1.57799e-06
1.83194e-06
1.57611e-06
1.82999e-06
1.57447e-06
1506.4
1506.44
1.52931
1.52628
0.00220081
0.00202842
4.83801e-06
4.0914e-06
3.82145e-06
3.25501e-06
2.53708e-06
2.17243e-06
2.24747e-06
1.92794e-06
2.03445e-06
1.74777e-06
1.92427e-06
1.65454e-06
1492.72
1492.67
2.02221
1.99345
0.00739964
0.00634515
0.00168333
0.00145617
0.00162783
0.00141174
0.000861063
0.000745208
0.000682116
0.000591505
0.000428151
0.000370951
0.00027462
0.000238391
1698.55
1698.64
13.1102
13.1406
1.34768
1.37658
1.17894
1.20815
1.18104
1.21016
1.17719
1.20609
1.17754
1.20666
1.17563
1.20453
1.17461
1.20363
)
;
    }
}


// ************************************************************************* //
