/*--------------------------------*- C++ -*----------------------------------*\
  =========                 |
  \\      /  F ield         | OpenFOAM: The Open Source CFD Toolbox
   \\    /   O peration     | Website:  https://openfoam.org
    \\  /    A nd           | Version:  11
     \\/     M anipulation  |
\*---------------------------------------------------------------------------*/
FoamFile
{
    format      ascii;
    class       volScalarField;
    location    "61";
    object      k;
}
// * * * * * * * * * * * * * * * * * * * * * * * * * * * * * * * * * * * * * //

dimensions      [0 2 -2 0 0 0 0];

internalField   nonuniform List<scalar> 
729
(
0.00208747
0.00185815
0.00187123
0.00187509
0.00188079
0.00187764
0.001883
0.0018659
0.00212318
2.18714e-06
3.00377e-07
3.07553e-07
3.09844e-07
3.12634e-07
5.90984e-07
1.91164e-06
2.52776e-06
1.63877e-05
1.37674e-06
2.52093e-10
1.26331e-11
1.26584e-11
1.29581e-11
2.03035e-10
2.75101e-09
9.24955e-09
1.6846e-06
1.43617e-06
2.44402e-10
2.39373e-12
2.31997e-12
2.31385e-12
2.34065e-12
6.04751e-12
2.10417e-09
1.47368e-06
1.44971e-06
2.47165e-10
2.37635e-12
2.3067e-12
2.30395e-12
2.3076e-12
4.77681e-12
2.03479e-09
1.4763e-06
1.45513e-06
2.48743e-10
2.37078e-12
2.29743e-12
2.29626e-12
2.29657e-12
3.17135e-12
1.07633e-09
1.47148e-06
1.45743e-06
2.49341e-10
2.36692e-12
2.29413e-12
2.29272e-12
2.29259e-12
2.80934e-12
8.52645e-10
1.47192e-06
1.46443e-06
2.5081e-10
2.36613e-12
2.29266e-12
2.28941e-12
2.28993e-12
2.54306e-12
5.35189e-10
1.46954e-06
1.49371e-06
2.56616e-10
2.44482e-12
2.33064e-12
2.28645e-12
2.28749e-12
2.40534e-12
3.43275e-10
1.46826e-06
0.0123502
0.0102843
0.0104028
0.0104368
0.010488
0.0104594
0.0105072
0.010353
0.0126649
1.84145e-05
2.51387e-06
2.58121e-06
2.60125e-06
2.62549e-06
5.05044e-06
1.66382e-05
2.18952e-05
0.000143883
1.13485e-05
1.27578e-09
5.29867e-11
5.32171e-11
5.50563e-11
1.60375e-09
2.35796e-08
5.78538e-08
1.40236e-05
1.18441e-05
1.22098e-09
8.04139e-12
7.7728e-12
7.75084e-12
7.85349e-12
2.33815e-11
1.18125e-08
1.2158e-05
1.19571e-05
1.23709e-09
7.98147e-12
7.72742e-12
7.71717e-12
7.73154e-12
1.77566e-11
1.15811e-08
1.21787e-05
1.20019e-05
1.24471e-09
7.96263e-12
7.69541e-12
7.69115e-12
7.69234e-12
1.10942e-11
5.95369e-09
1.21386e-05
1.20209e-05
1.2476e-09
7.94942e-12
7.68383e-12
7.67899e-12
7.67858e-12
9.66601e-12
4.74946e-09
1.21422e-05
1.20796e-05
1.25557e-09
7.94681e-12
7.67882e-12
7.66737e-12
7.66903e-12
8.62424e-12
2.8698e-09
1.21222e-05
1.23258e-05
1.28742e-09
8.22516e-12
7.81271e-12
7.65726e-12
7.66079e-12
8.09754e-12
1.78828e-09
1.21116e-05
0.0195198
0.018258
0.0184744
0.0185441
0.0186414
0.0185916
0.0186834
0.0184042
0.0199753
4.69037e-05
5.07178e-06
5.20918e-06
5.2519e-06
5.30318e-06
1.06023e-05
3.5553e-05
4.74734e-05
0.00035911
2.85897e-05
3.41862e-09
1.49365e-10
1.50398e-10
1.55998e-10
3.97642e-09
5.2986e-08
1.67102e-07
3.55452e-05
2.98444e-05
3.26347e-09
1.76865e-11
1.70707e-11
1.70217e-11
1.73193e-11
5.72139e-11
3.3344e-08
3.06427e-05
3.01337e-05
3.30746e-09
1.75551e-11
1.69708e-11
1.69475e-11
1.69821e-11
4.1602e-11
3.27015e-08
3.06914e-05
3.02436e-05
3.32675e-09
1.75146e-11
1.69013e-11
1.68914e-11
1.68941e-11
2.51233e-11
1.66931e-08
3.05905e-05
3.02914e-05
3.33427e-09
1.74861e-11
1.6876e-11
1.68653e-11
1.68644e-11
2.1672e-11
1.328e-08
3.05994e-05
3.04406e-05
3.35544e-09
1.74807e-11
1.6865e-11
1.68396e-11
1.68433e-11
1.91139e-11
7.93468e-09
3.05482e-05
3.10671e-05
3.44184e-09
1.8108e-11
1.71665e-11
1.68176e-11
1.68253e-11
1.78482e-11
4.87634e-09
3.05215e-05
0.0222078
0.0234898
0.0237059
0.0237963
0.0239034
0.0238592
0.0239661
0.0236971
0.0227166
6.61966e-05
6.98401e-06
7.17658e-06
7.23781e-06
7.31049e-06
1.49877e-05
5.08553e-05
6.83829e-05
0.000498395
4.0647e-05
5.07155e-09
2.19776e-10
2.21487e-10
2.30242e-10
5.98389e-09
7.794e-08
2.67529e-07
5.06395e-05
4.24343e-05
4.83962e-09
2.44874e-11
2.36264e-11
2.35584e-11
2.40242e-11
8.40482e-11
5.25243e-08
4.35719e-05
4.28486e-05
4.90606e-09
2.43074e-11
2.3489e-11
2.34562e-11
2.35061e-11
5.97855e-11
5.15451e-08
4.36374e-05
4.30026e-05
4.93425e-09
2.42528e-11
2.33947e-11
2.33805e-11
2.33844e-11
3.53815e-11
2.61103e-08
4.34943e-05
4.3069e-05
4.94536e-09
2.42139e-11
2.33598e-11
2.3345e-11
2.3344e-11
3.03408e-11
2.07077e-08
4.35074e-05
4.32822e-05
4.97694e-09
2.42072e-11
2.33448e-11
2.33096e-11
2.33145e-11
2.65813e-11
1.22319e-08
4.34338e-05
4.41749e-05
5.10723e-09
2.50875e-11
2.37679e-11
2.32792e-11
2.32898e-11
2.4745e-11
7.40114e-09
4.33965e-05
0.0230519
0.0252728
0.0254604
0.0255556
0.0256572
0.0256223
0.0257282
0.0254998
0.0235792
7.30821e-05
7.67922e-06
7.89577e-06
7.96407e-06
8.04472e-06
1.66317e-05
5.66675e-05
7.63143e-05
0.000546769
4.50411e-05
5.5471e-09
2.38819e-10
2.40734e-10
2.50462e-10
6.68198e-09
8.72339e-08
3.03462e-07
5.61342e-05
4.70212e-05
5.29272e-09
2.63265e-11
2.54036e-11
2.53308e-11
2.58465e-11
9.19859e-11
5.91671e-08
4.82824e-05
4.74816e-05
5.36608e-09
2.61344e-11
2.52571e-11
2.52213e-11
2.52758e-11
6.50388e-11
5.81081e-08
4.83527e-05
4.76515e-05
5.39684e-09
2.6077e-11
2.51573e-11
2.51417e-11
2.5146e-11
3.82419e-11
2.93217e-08
4.81936e-05
4.77245e-05
5.40899e-09
2.60353e-11
2.51195e-11
2.51037e-11
2.5103e-11
3.27338e-11
2.32326e-08
4.82094e-05
4.79613e-05
5.44377e-09
2.60288e-11
2.51037e-11
2.50658e-11
2.50711e-11
2.86207e-11
1.36496e-08
4.81266e-05
4.89494e-05
5.58755e-09
2.69791e-11
2.55605e-11
2.50333e-11
2.50447e-11
2.66191e-11
8.20343e-09
4.80863e-05
0.0222087
0.023491
0.0237072
0.023797
0.023904
0.0238588
0.0239663
0.0236946
0.0227169
6.6474e-05
6.97024e-06
7.17486e-06
7.23601e-06
7.30863e-06
1.49711e-05
5.08335e-05
6.81722e-05
0.000498691
4.09224e-05
4.71419e-09
2.03044e-10
2.04606e-10
2.12688e-10
5.72698e-09
7.63659e-08
2.54786e-07
5.09193e-05
4.2714e-05
4.49803e-09
2.29112e-11
2.21188e-11
2.20559e-11
2.24801e-11
7.79046e-11
4.98704e-08
4.38618e-05
4.31325e-05
4.56049e-09
2.27444e-11
2.19919e-11
2.19602e-11
2.2007e-11
5.56662e-11
4.90241e-08
4.39249e-05
4.32886e-05
4.58688e-09
2.26964e-11
2.19063e-11
2.18922e-11
2.18958e-11
3.30277e-11
2.47543e-08
4.37779e-05
4.33538e-05
4.59708e-09
2.26585e-11
2.18725e-11
2.18588e-11
2.18587e-11
2.83533e-11
1.96473e-08
4.37955e-05
4.35719e-05
4.627e-09
2.26543e-11
2.18592e-11
2.18262e-11
2.18305e-11
2.48646e-11
1.15637e-08
4.37175e-05
4.44641e-05
4.74895e-09
2.34758e-11
2.22544e-11
2.17977e-11
2.18078e-11
2.316e-11
6.97928e-09
4.36826e-05
0.0195222
0.018259
0.0184761
0.0185448
0.0186422
0.0185913
0.0186838
0.018402
0.0199764
4.7362e-05
5.04968e-06
5.20645e-06
5.24903e-06
5.30017e-06
1.05742e-05
3.55161e-05
4.71176e-05
0.000359604
2.90417e-05
2.92608e-09
1.25582e-10
1.26415e-10
1.311e-10
3.59308e-09
5.05385e-08
1.49375e-07
3.6013e-05
3.03073e-05
2.79384e-09
1.54269e-11
1.49071e-11
1.4865e-11
1.51094e-11
4.88306e-11
2.96769e-08
3.11196e-05
3.06024e-05
2.83226e-09
1.53143e-11
1.48219e-11
1.48002e-11
1.4831e-11
3.58691e-11
2.92041e-08
3.1166e-05
3.07159e-05
2.849e-09
1.52823e-11
1.47641e-11
1.47547e-11
1.47571e-11
2.17998e-11
1.48217e-08
3.10605e-05
3.07622e-05
2.85533e-09
1.52558e-11
1.47409e-11
1.47316e-11
1.47317e-11
1.88486e-11
1.18106e-08
3.10745e-05
3.09174e-05
2.87403e-09
1.52534e-11
1.4732e-11
1.47099e-11
1.47129e-11
1.66602e-11
7.01243e-09
3.10184e-05
3.15449e-05
2.94898e-09
1.57975e-11
1.4994e-11
1.46907e-11
1.46976e-11
1.5576e-11
4.29271e-09
3.09944e-05
0.0123524
0.0102844
0.010404
0.0104373
0.0104886
0.0104593
0.0105077
0.0103524
0.012666
1.86855e-05
2.49431e-06
2.57877e-06
2.5987e-06
2.62278e-06
5.0241e-06
1.66036e-05
2.15665e-05
0.000144176
1.16149e-05
1.01175e-09
4.14421e-11
4.15928e-11
4.29887e-11
1.33967e-09
2.16388e-08
4.75432e-08
1.43017e-05
1.21179e-05
9.69896e-10
6.69229e-12
6.47789e-12
6.45993e-12
6.53918e-12
1.89065e-11
9.7484e-09
1.24393e-05
1.22339e-05
9.82847e-10
6.64351e-12
6.44117e-12
6.43203e-12
6.44448e-12
1.45406e-11
9.58978e-09
1.24591e-05
1.22807e-05
9.89012e-10
6.62949e-12
6.41582e-12
6.41198e-12
6.41306e-12
9.17138e-12
4.90707e-09
1.24169e-05
1.22991e-05
9.91274e-10
6.61771e-12
6.40572e-12
6.4017e-12
6.40182e-12
8.01515e-12
3.92212e-09
1.24228e-05
1.23608e-05
9.9779e-10
6.61658e-12
6.40189e-12
6.39241e-12
6.39368e-12
7.17065e-12
2.35991e-09
1.24004e-05
1.2608e-05
1.02329e-09
6.84628e-12
6.51263e-12
6.38401e-12
6.38703e-12
6.74291e-12
1.46851e-09
1.2391e-05
0.00208775
0.00185815
0.00187137
0.00187513
0.00188086
0.00187763
0.00188305
0.00186584
0.0021233
2.22236e-06
2.98216e-07
3.07284e-07
3.09562e-07
3.12334e-07
5.88102e-07
1.90786e-06
2.49181e-06
1.64257e-05
1.41136e-06
2.12321e-10
1.09181e-11
1.09375e-11
1.11798e-11
1.72893e-10
2.53552e-09
7.93143e-09
1.72073e-06
1.47173e-06
2.05896e-10
2.05667e-12
1.99545e-12
1.99022e-12
2.01209e-12
5.11425e-12
1.82021e-09
1.51018e-06
1.48565e-06
2.08242e-10
2.04199e-12
1.9843e-12
1.98176e-12
1.98506e-12
4.06876e-12
1.76467e-09
1.5127e-06
1.49132e-06
2.09589e-10
2.0377e-12
1.97666e-12
1.97557e-12
1.97584e-12
2.71553e-12
9.3151e-10
1.50761e-06
1.49355e-06
2.10079e-10
2.03412e-12
1.9737e-12
1.97249e-12
1.97248e-12
2.40993e-12
7.39381e-10
1.50833e-06
1.50093e-06
2.11347e-10
2.03372e-12
1.97253e-12
1.96973e-12
1.97014e-12
2.18472e-12
4.63689e-10
1.50566e-06
1.53033e-06
2.1624e-10
2.10087e-12
2.00499e-12
1.96718e-12
1.96809e-12
2.06818e-12
2.97989e-10
1.50453e-06
)
;

boundaryField
{
    inlet
    {
        type            fixedValue;
        value           uniform 0.375;
    }
    outlet
    {
        type            zeroGradient;
    }
    lowerWall
    {
        type            kqRWallFunction;
        value           nonuniform List<scalar> 
162
(
0.00208747
0.0123502
0.0195198
0.0222078
0.0230519
0.0222087
0.0195222
0.0123524
0.00208775
2.18714e-06
1.84145e-05
4.69037e-05
6.61966e-05
7.30821e-05
6.6474e-05
4.7362e-05
1.86855e-05
2.22236e-06
1.37674e-06
1.13485e-05
2.85897e-05
4.0647e-05
4.50411e-05
4.09224e-05
2.90417e-05
1.16149e-05
1.41136e-06
1.43617e-06
1.18441e-05
2.98444e-05
4.24343e-05
4.70212e-05
4.2714e-05
3.03073e-05
1.21179e-05
1.47173e-06
1.44971e-06
1.19571e-05
3.01337e-05
4.28486e-05
4.74816e-05
4.31325e-05
3.06024e-05
1.22339e-05
1.48565e-06
1.45513e-06
1.20019e-05
3.02436e-05
4.30026e-05
4.76515e-05
4.32886e-05
3.07159e-05
1.22807e-05
1.49132e-06
1.45743e-06
1.20209e-05
3.02914e-05
4.3069e-05
4.77245e-05
4.33538e-05
3.07622e-05
1.22991e-05
1.49355e-06
1.46443e-06
1.20796e-05
3.04406e-05
4.32822e-05
4.79613e-05
4.35719e-05
3.09174e-05
1.23608e-05
1.50093e-06
1.49371e-06
1.23258e-05
3.10671e-05
4.41749e-05
4.89494e-05
4.44641e-05
3.15449e-05
1.2608e-05
1.53033e-06
0.00212318
0.0126649
0.0199753
0.0227166
0.0235792
0.0227169
0.0199764
0.012666
0.0021233
1.63877e-05
0.000143883
0.00035911
0.000498395
0.000546769
0.000498691
0.000359604
0.000144176
1.64257e-05
1.6846e-06
1.40236e-05
3.55452e-05
5.06395e-05
5.61342e-05
5.09193e-05
3.6013e-05
1.43017e-05
1.72073e-06
1.47368e-06
1.2158e-05
3.06427e-05
4.35719e-05
4.82824e-05
4.38618e-05
3.11196e-05
1.24393e-05
1.51018e-06
1.4763e-06
1.21787e-05
3.06914e-05
4.36374e-05
4.83527e-05
4.39249e-05
3.1166e-05
1.24591e-05
1.5127e-06
1.47148e-06
1.21386e-05
3.05905e-05
4.34943e-05
4.81936e-05
4.37779e-05
3.10605e-05
1.24169e-05
1.50761e-06
1.47192e-06
1.21422e-05
3.05994e-05
4.35074e-05
4.82094e-05
4.37955e-05
3.10745e-05
1.24228e-05
1.50833e-06
1.46954e-06
1.21222e-05
3.05482e-05
4.34338e-05
4.81266e-05
4.37175e-05
3.10184e-05
1.24004e-05
1.50566e-06
1.46826e-06
1.21116e-05
3.05215e-05
4.33965e-05
4.80863e-05
4.36826e-05
3.09944e-05
1.2391e-05
1.50453e-06
)
;
    }
    upperWall
    {
        type            kqRWallFunction;
        value           nonuniform List<scalar> 
162
(
0.00208747
0.00208775
2.18714e-06
2.22236e-06
1.37674e-06
1.41136e-06
1.43617e-06
1.47173e-06
1.44971e-06
1.48565e-06
1.45513e-06
1.49132e-06
1.45743e-06
1.49355e-06
1.46443e-06
1.50093e-06
1.49371e-06
1.53033e-06
0.00185815
0.00185815
3.00377e-07
2.98216e-07
2.52093e-10
2.12321e-10
2.44402e-10
2.05896e-10
2.47165e-10
2.08242e-10
2.48743e-10
2.09589e-10
2.49341e-10
2.10079e-10
2.5081e-10
2.11347e-10
2.56616e-10
2.1624e-10
0.00187123
0.00187137
3.07553e-07
3.07284e-07
1.26331e-11
1.09181e-11
2.39373e-12
2.05667e-12
2.37635e-12
2.04199e-12
2.37078e-12
2.0377e-12
2.36692e-12
2.03412e-12
2.36613e-12
2.03372e-12
2.44482e-12
2.10087e-12
0.00187509
0.00187513
3.09844e-07
3.09562e-07
1.26584e-11
1.09375e-11
2.31997e-12
1.99545e-12
2.3067e-12
1.9843e-12
2.29743e-12
1.97666e-12
2.29413e-12
1.9737e-12
2.29266e-12
1.97253e-12
2.33064e-12
2.00499e-12
0.00188079
0.00188086
3.12634e-07
3.12334e-07
1.29581e-11
1.11798e-11
2.31385e-12
1.99022e-12
2.30395e-12
1.98176e-12
2.29626e-12
1.97557e-12
2.29272e-12
1.97249e-12
2.28941e-12
1.96973e-12
2.28645e-12
1.96718e-12
0.00187764
0.00187763
5.90984e-07
5.88102e-07
2.03035e-10
1.72893e-10
2.34065e-12
2.01209e-12
2.3076e-12
1.98506e-12
2.29657e-12
1.97584e-12
2.29259e-12
1.97248e-12
2.28993e-12
1.97014e-12
2.28749e-12
1.96809e-12
0.001883
0.00188305
1.91164e-06
1.90786e-06
2.75101e-09
2.53552e-09
6.04751e-12
5.11425e-12
4.77681e-12
4.06876e-12
3.17135e-12
2.71553e-12
2.80934e-12
2.40993e-12
2.54306e-12
2.18472e-12
2.40534e-12
2.06818e-12
0.0018659
0.00186584
2.52776e-06
2.49181e-06
9.24955e-09
7.93143e-09
2.10417e-09
1.82021e-09
2.03479e-09
1.76467e-09
1.07633e-09
9.3151e-10
8.52645e-10
7.39381e-10
5.35189e-10
4.63689e-10
3.43275e-10
2.97989e-10
0.00212318
0.0021233
1.63877e-05
1.64257e-05
1.6846e-06
1.72073e-06
1.47368e-06
1.51018e-06
1.4763e-06
1.5127e-06
1.47148e-06
1.50761e-06
1.47192e-06
1.50833e-06
1.46954e-06
1.50566e-06
1.46826e-06
1.50453e-06
)
;
    }
}


// ************************************************************************* //
