/*--------------------------------*- C++ -*----------------------------------*\
  =========                 |
  \\      /  F ield         | OpenFOAM: The Open Source CFD Toolbox
   \\    /   O peration     | Website:  https://openfoam.org
    \\  /    A nd           | Version:  11
     \\/     M anipulation  |
\*---------------------------------------------------------------------------*/
FoamFile
{
    format      ascii;
    class       volScalarField;
    location    "61";
    object      nut;
}
// * * * * * * * * * * * * * * * * * * * * * * * * * * * * * * * * * * * * * //

dimensions      [0 2 -1 0 0 0 0];

internalField   nonuniform List<scalar> 
729
(
2.3484e-10
2.09042e-10
2.10514e-10
2.10947e-10
2.11589e-10
2.11235e-10
2.11837e-10
2.09913e-10
2.38858e-10
2.46053e-13
3.37924e-14
3.45997e-14
3.48575e-14
3.51713e-14
6.64858e-14
2.1506e-13
2.84373e-13
1.84362e-12
1.54884e-13
2.83605e-17
1.42123e-18
1.42407e-18
1.45779e-18
2.28415e-17
3.09488e-16
1.04057e-15
1.89517e-13
1.6157e-13
2.74953e-17
2.69295e-19
2.60997e-19
2.60308e-19
2.63323e-19
6.80345e-19
2.36719e-16
1.65789e-13
1.63092e-13
2.7806e-17
2.67339e-19
2.59504e-19
2.59194e-19
2.59605e-19
5.37391e-19
2.28914e-16
1.66083e-13
1.63703e-13
2.79836e-17
2.66713e-19
2.58461e-19
2.5833e-19
2.58364e-19
3.56777e-19
1.21087e-16
1.65542e-13
1.63961e-13
2.80508e-17
2.66279e-19
2.5809e-19
2.57932e-19
2.57917e-19
3.1605e-19
9.59225e-17
1.65591e-13
1.64748e-13
2.82161e-17
2.6619e-19
2.57925e-19
2.57559e-19
2.57617e-19
2.86094e-19
6.02087e-17
1.65323e-13
1.68042e-13
2.88693e-17
2.75042e-19
2.62197e-19
2.57225e-19
2.57343e-19
2.70601e-19
3.86184e-17
1.65179e-13
1.25045e-08
1.59775e-08
1.6147e-08
1.61993e-08
1.62747e-08
1.62332e-08
1.63185e-08
1.60972e-08
1.28232e-08
1.86447e-11
4.05857e-12
4.30377e-12
4.33565e-12
4.37093e-12
7.30143e-12
2.42546e-11
2.79559e-11
1.45681e-10
1.14903e-11
3.2791e-17
8.33332e-19
8.47479e-19
9.07393e-19
5.16062e-16
2.10272e-14
3.39804e-15
1.41989e-11
1.19921e-11
2.91893e-17
2.07045e-20
1.95707e-20
1.94928e-20
1.99928e-20
1.32897e-19
4.21835e-16
1.231e-11
1.21066e-11
2.98395e-17
2.05235e-20
1.94373e-20
1.9396e-20
1.94654e-20
8.25061e-20
4.44585e-16
1.2331e-11
1.21519e-11
2.999e-17
2.04744e-20
1.93421e-20
1.93262e-20
1.93323e-20
3.65097e-20
2.0186e-16
1.22904e-11
1.21712e-11
3.00457e-17
2.04368e-20
1.93046e-20
1.92906e-20
1.92903e-20
2.88536e-20
1.6874e-16
1.2294e-11
1.22306e-11
3.03087e-17
2.04318e-20
1.9291e-20
1.92533e-20
1.92566e-20
2.35932e-20
8.72119e-17
1.22737e-11
1.24799e-11
3.13731e-17
2.13635e-20
1.97281e-20
1.92245e-20
1.92338e-20
2.1146e-20
4.9417e-17
1.2263e-11
2.19598e-05
8.19939e-08
8.19051e-08
8.21108e-08
8.23276e-08
8.22541e-08
8.26298e-08
8.22034e-08
2.24722e-05
5.27667e-08
1.91017e-11
2.05696e-11
2.07208e-11
2.08661e-11
3.31986e-11
1.08902e-10
1.28483e-10
4.03999e-07
3.21634e-08
2.21624e-16
5.78353e-18
5.91418e-18
6.36357e-18
2.67442e-15
8.9679e-14
2.76075e-14
3.99884e-08
3.35749e-08
1.96267e-16
8.79472e-20
8.2926e-20
8.25947e-20
8.54208e-20
6.75888e-19
3.23762e-15
3.4473e-08
3.39004e-08
2.00835e-16
8.71846e-20
8.23593e-20
8.21828e-20
8.25103e-20
3.87264e-19
3.44805e-15
3.45278e-08
3.4024e-08
2.01632e-16
8.69871e-20
8.19691e-20
8.18961e-20
8.19248e-20
1.62723e-19
1.52299e-15
3.44143e-08
3.40778e-08
2.01967e-16
8.68313e-20
8.18151e-20
8.17553e-20
8.17549e-20
1.26681e-19
1.26925e-15
3.44243e-08
3.42456e-08
2.03691e-16
8.68125e-20
8.17558e-20
8.15999e-20
8.16163e-20
1.01562e-19
6.34242e-16
3.43667e-08
3.49505e-08
2.1091e-16
9.0867e-20
8.36571e-20
8.14821e-20
8.15204e-20
9.01807e-20
3.47151e-16
3.43367e-08
2.49838e-05
1.79203e-07
1.77047e-07
1.7728e-07
1.77354e-07
1.7748e-07
1.78103e-07
1.78723e-07
2.55562e-05
7.44711e-08
3.76968e-11
4.12585e-11
4.15459e-11
4.17783e-11
6.43829e-11
2.11866e-10
2.49963e-10
5.60695e-07
4.57279e-08
4.04161e-16
9.99183e-18
1.02365e-17
1.1061e-17
4.78444e-15
1.56805e-13
6.07219e-14
5.69695e-08
4.77386e-08
3.57327e-16
1.34599e-19
1.26833e-19
1.26328e-19
1.31233e-19
1.14363e-18
6.80622e-15
4.90184e-08
4.82047e-08
3.65803e-16
1.33431e-19
1.25966e-19
1.25694e-19
1.26215e-19
6.2925e-19
7.30776e-15
4.90921e-08
4.83779e-08
3.67077e-16
1.33135e-19
1.25383e-19
1.25268e-19
1.25316e-19
2.56167e-19
3.14207e-15
4.8931e-08
4.84526e-08
3.67646e-16
1.329e-19
1.25146e-19
1.25056e-19
1.2506e-19
1.97596e-19
2.60399e-15
4.89458e-08
4.86924e-08
3.7078e-16
1.32877e-19
1.25054e-19
1.2482e-19
1.24847e-19
1.56611e-19
1.25962e-15
4.8863e-08
4.96968e-08
3.84244e-16
1.39178e-19
1.2801e-19
1.24643e-19
1.24701e-19
1.38332e-19
6.63584e-16
4.8821e-08
2.59334e-05
2.27982e-07
2.2431e-07
2.24488e-07
2.24398e-07
2.24677e-07
2.25379e-07
2.26842e-07
2.65266e-05
8.22174e-08
4.59292e-11
5.06783e-11
5.10213e-11
5.1275e-11
7.81782e-11
2.58152e-10
3.03379e-10
6.15115e-07
5.06712e-08
4.44871e-16
1.07827e-17
1.10517e-17
1.19619e-17
5.44245e-15
1.80905e-13
7.25888e-14
6.31509e-08
5.28988e-08
3.9307e-16
1.42144e-19
1.33974e-19
1.33449e-19
1.38785e-19
1.24443e-18
7.98424e-15
5.43177e-08
5.34168e-08
4.02464e-16
1.40918e-19
1.33067e-19
1.32777e-19
1.33336e-19
6.772e-19
8.60308e-15
5.43967e-08
5.36079e-08
4.03813e-16
1.40614e-19
1.32469e-19
1.32345e-19
1.32399e-19
2.72881e-19
3.65727e-15
5.42178e-08
5.369e-08
4.04435e-16
1.40369e-19
1.32213e-19
1.32119e-19
1.32131e-19
2.09886e-19
3.02564e-15
5.42356e-08
5.39565e-08
4.07905e-16
1.40353e-19
1.32117e-19
1.31874e-19
1.31903e-19
1.65821e-19
1.44365e-15
5.41424e-08
5.50681e-08
4.22957e-16
1.47045e-19
1.35258e-19
1.31688e-19
1.31751e-19
1.46237e-19
7.48833e-16
5.40971e-08
2.49848e-05
1.79191e-07
1.77062e-07
1.7729e-07
1.77366e-07
1.77484e-07
1.7812e-07
1.7873e-07
2.55565e-05
7.47832e-08
3.7384e-11
4.12179e-11
4.15032e-11
4.17319e-11
6.40645e-11
2.11482e-10
2.46753e-10
5.61028e-07
4.60377e-08
3.31621e-16
8.18659e-18
8.38511e-18
9.0613e-18
4.21783e-15
1.4647e-13
5.2103e-14
5.72843e-08
4.80533e-08
2.93176e-16
1.1309e-19
1.06694e-19
1.06285e-19
1.10285e-19
9.40477e-19
5.7921e-15
4.93445e-08
4.8524e-08
3.0021e-16
1.12131e-19
1.05986e-19
1.05746e-19
1.06173e-19
5.22294e-19
6.2393e-15
4.94155e-08
4.86997e-08
3.0127e-16
1.11899e-19
1.05525e-19
1.05425e-19
1.05469e-19
2.13967e-19
2.666e-15
4.92501e-08
4.87731e-08
3.01764e-16
1.11704e-19
1.05316e-19
1.05243e-19
1.05258e-19
1.65475e-19
2.21317e-15
4.92699e-08
4.90184e-08
3.04397e-16
1.11703e-19
1.05244e-19
1.05052e-19
1.05074e-19
1.31492e-19
1.06294e-15
4.91822e-08
5.00221e-08
3.15662e-16
1.16992e-19
1.0773e-19
1.04904e-19
1.04956e-19
1.16306e-19
5.57437e-16
4.91429e-08
2.19625e-05
8.19855e-08
8.19186e-08
8.21186e-08
8.23376e-08
8.22573e-08
8.26422e-08
8.22075e-08
2.24735e-05
5.32822e-08
1.87653e-11
2.05264e-11
2.06758e-11
2.08173e-11
3.28248e-11
1.0844e-10
1.24649e-10
4.04555e-07
3.26719e-08
1.44185e-16
3.68615e-18
3.76703e-18
4.05268e-18
1.98305e-15
7.62423e-14
1.95182e-14
4.05146e-08
3.40957e-08
1.27761e-16
6.02998e-20
5.69894e-20
5.6774e-20
5.85906e-20
4.40943e-19
2.25725e-15
3.50095e-08
3.44277e-08
1.30793e-16
5.97958e-20
5.66188e-20
5.64834e-20
5.67097e-20
2.58013e-19
2.42085e-15
3.50617e-08
3.45554e-08
1.31328e-16
5.96752e-20
5.63749e-20
5.63215e-20
5.63452e-20
1.10121e-19
1.05612e-15
3.49431e-08
3.46074e-08
1.31562e-16
5.95681e-20
5.62608e-20
5.62205e-20
5.62304e-20
8.62014e-20
8.83292e-16
3.49588e-08
3.47821e-08
1.32732e-16
5.9571e-20
5.6224e-20
5.61211e-20
5.61315e-20
6.94883e-20
4.35483e-16
3.48957e-08
3.5488e-08
1.37604e-16
6.23421e-20
5.75287e-20
5.60412e-20
5.60696e-20
6.18855e-20
2.36496e-16
3.48687e-08
1.25068e-08
1.59755e-08
1.61503e-08
1.62011e-08
1.6277e-08
1.62339e-08
1.63211e-08
1.60986e-08
1.28243e-08
1.8919e-11
3.95107e-12
4.28982e-12
4.3212e-12
4.35528e-12
7.16454e-12
2.40751e-11
2.65192e-11
1.45979e-10
1.17601e-11
1.83329e-17
4.60356e-19
4.67454e-19
4.99606e-19
3.25021e-16
1.62725e-14
2.00761e-15
1.44805e-11
1.22693e-11
1.63737e-17
1.29584e-20
1.22831e-20
1.22373e-20
1.2526e-20
7.77167e-20
2.50529e-16
1.25947e-11
1.23869e-11
1.67417e-17
1.28505e-20
1.22041e-20
1.2176e-20
1.2221e-20
4.95556e-20
2.65739e-16
1.26148e-11
1.24342e-11
1.68276e-17
1.28232e-20
1.21497e-20
1.21389e-20
1.21441e-20
2.24619e-20
1.1959e-16
1.25721e-11
1.24528e-11
1.68605e-17
1.27994e-20
1.21245e-20
1.21159e-20
1.21181e-20
1.78845e-20
1.00397e-16
1.2578e-11
1.25153e-11
1.70125e-17
1.27998e-20
1.2117e-20
1.20944e-20
1.20963e-20
1.47224e-20
5.14808e-17
1.25554e-11
1.27656e-11
1.76238e-17
1.33772e-20
1.23893e-20
1.20767e-20
1.2083e-20
1.32446e-20
2.9135e-17
1.25459e-11
2.34871e-10
2.09042e-10
2.10529e-10
2.10952e-10
2.11597e-10
2.11234e-10
2.11843e-10
2.09907e-10
2.38871e-10
2.50015e-13
3.35493e-14
3.45695e-14
3.48258e-14
3.51376e-14
6.61615e-14
2.14634e-13
2.80328e-13
1.84789e-12
1.58778e-13
2.38861e-17
1.22828e-18
1.23046e-18
1.25773e-18
1.94505e-17
2.85246e-16
8.92286e-16
1.93582e-13
1.6557e-13
2.31633e-17
2.31376e-19
2.24488e-19
2.23899e-19
2.2636e-19
5.75353e-19
2.04773e-16
1.69896e-13
1.67136e-13
2.34272e-17
2.29723e-19
2.23234e-19
2.22948e-19
2.23319e-19
4.57735e-19
1.98525e-16
1.70178e-13
1.67774e-13
2.35787e-17
2.29241e-19
2.22374e-19
2.22252e-19
2.22282e-19
3.05497e-19
1.04795e-16
1.69606e-13
1.68024e-13
2.36339e-17
2.28838e-19
2.22041e-19
2.21905e-19
2.21904e-19
2.71117e-19
8.31804e-17
1.69687e-13
1.68854e-13
2.37765e-17
2.28793e-19
2.21909e-19
2.21594e-19
2.2164e-19
2.45781e-19
5.2165e-17
1.69387e-13
1.72163e-13
2.4327e-17
2.36348e-19
2.25561e-19
2.21307e-19
2.2141e-19
2.3267e-19
3.35238e-17
1.6926e-13
)
;

boundaryField
{
    inlet
    {
        type            calculated;
        value           uniform 0.000851986;
    }
    outlet
    {
        type            calculated;
        value           nonuniform List<scalar> 
81
(
1.68042e-13
1.24799e-11
3.49505e-08
4.96968e-08
5.50681e-08
5.00221e-08
3.5488e-08
1.27656e-11
1.72163e-13
2.88693e-17
3.13731e-17
2.1091e-16
3.84244e-16
4.22957e-16
3.15662e-16
1.37604e-16
1.76238e-17
2.4327e-17
2.75042e-19
2.13635e-20
9.0867e-20
1.39178e-19
1.47045e-19
1.16992e-19
6.23421e-20
1.33772e-20
2.36348e-19
2.62197e-19
1.97281e-20
8.36571e-20
1.2801e-19
1.35258e-19
1.0773e-19
5.75287e-20
1.23893e-20
2.25561e-19
2.57225e-19
1.92245e-20
8.14821e-20
1.24643e-19
1.31688e-19
1.04904e-19
5.60412e-20
1.20767e-20
2.21307e-19
2.57343e-19
1.92338e-20
8.15204e-20
1.24701e-19
1.31751e-19
1.04956e-19
5.60696e-20
1.2083e-20
2.2141e-19
2.70601e-19
2.1146e-20
9.01807e-20
1.38332e-19
1.46237e-19
1.16306e-19
6.18855e-20
1.32446e-20
2.3267e-19
3.86184e-17
4.9417e-17
3.47151e-16
6.63584e-16
7.48833e-16
5.57437e-16
2.36496e-16
2.9135e-17
3.35238e-17
1.65179e-13
1.2263e-11
3.43367e-08
4.8821e-08
5.40971e-08
4.91429e-08
3.48687e-08
1.25459e-11
1.6926e-13
)
;
    }
    lowerWall
    {
        type            nutkWallFunction;
        Cmu             0.09;
        kappa           0.41;
        E               9.8;
        value           uniform 0;
    }
    upperWall
    {
        type            nutkWallFunction;
        Cmu             0.09;
        kappa           0.41;
        E               9.8;
        value           uniform 0;
    }
}


// ************************************************************************* //
