/*--------------------------------*- C++ -*----------------------------------*\
  =========                 |
  \\      /  F ield         | OpenFOAM: The Open Source CFD Toolbox
   \\    /   O peration     | Website:  https://openfoam.org
    \\  /    A nd           | Version:  11
     \\/     M anipulation  |
\*---------------------------------------------------------------------------*/
FoamFile
{
    format      ascii;
    class       volScalarField;
    location    "61";
    object      p;
}
// * * * * * * * * * * * * * * * * * * * * * * * * * * * * * * * * * * * * * //

dimensions      [0 2 -2 0 0 0 0];

internalField   nonuniform List<scalar> 
729
(
-26.6066
-12.0564
-9.05381
-3.73544
-0.189902
2.94478
8.81988
11.4804
28.259
-10.7287
-7.66787
-5.73107
-2.67814
-0.0793879
2.59951
5.5524
7.80883
9.42629
-10.1679
-6.9614
-5.27034
-2.41265
-0.0453524
2.26856
5.272
7.05107
10.4663
-5.36912
-4.30972
-3.23879
-1.59669
-0.0349439
1.56269
3.15832
4.30469
5.17188
-4.41504
-3.51557
-2.64911
-1.299
-0.0105088
1.27535
2.6548
3.55234
4.47342
-2.55608
-2.15461
-1.61624
-0.823088
-0.0123533
0.810993
1.58999
2.147
2.51732
-1.83189
-1.54095
-1.15595
-0.586335
-0.00155591
0.58613
1.15952
1.55393
1.84621
-0.907652
-0.779862
-0.583659
-0.301996
-0.00351216
0.298461
0.575992
0.776093
0.897922
-0.348258
-0.29675
-0.222076
-0.113242
0.00113427
0.115881
0.22585
0.301999
0.354326
-26.4172
-11.9925
-9.01111
-3.72012
-0.187915
2.94099
8.78064
11.4364
28.0454
-10.7281
-7.66789
-5.73108
-2.67814
-0.0793876
2.59951
5.55241
7.80885
9.42508
-10.1673
-6.9614
-5.27033
-2.41265
-0.0453524
2.26856
5.272
7.05107
10.4656
-5.36893
-4.30972
-3.23879
-1.59669
-0.0349437
1.56269
3.15832
4.30469
5.17171
-4.41487
-3.51557
-2.64911
-1.299
-0.0105089
1.27535
2.6548
3.55234
4.47326
-2.55601
-2.15461
-1.61624
-0.823088
-0.0123532
0.810993
1.58999
2.147
2.51725
-1.83184
-1.54095
-1.15595
-0.586335
-0.00155603
0.58613
1.15952
1.55393
1.84616
-0.907629
-0.779862
-0.583659
-0.301996
-0.00351213
0.298461
0.575992
0.776093
0.897899
-0.348249
-0.296749
-0.222076
-0.113242
0.00113424
0.115881
0.22585
0.301999
0.354316
-26.3006
-11.9454
-8.9794
-3.70851
-0.186353
2.93822
8.75195
11.4053
27.9154
-10.7268
-7.66781
-5.73105
-2.67813
-0.0793878
2.59951
5.55237
7.8088
9.42318
-10.167
-6.96141
-5.27037
-2.41265
-0.0453508
2.26856
5.27205
7.05108
10.4652
-5.36874
-4.3097
-3.23878
-1.59668
-0.0349442
1.56268
3.1583
4.30467
5.17153
-4.41477
-3.51558
-2.64912
-1.299
-0.0105083
1.27535
2.65481
3.55235
4.47316
-2.55594
-2.1546
-1.61624
-0.823085
-0.0123535
0.810991
1.58999
2.147
2.51719
-1.8318
-1.54095
-1.15596
-0.586336
-0.00155574
0.586131
1.15952
1.55393
1.84612
-0.907608
-0.77986
-0.583657
-0.301995
-0.00351227
0.29846
0.57599
0.77609
0.897878
-0.348244
-0.296751
-0.222078
-0.113242
0.00113434
0.115882
0.225852
0.302001
0.354311
-26.275
-11.9213
-8.96295
-3.70235
-0.185497
2.93687
8.73737
11.3904
27.8883
-10.7257
-7.66774
-5.73102
-2.67811
-0.079388
2.59951
5.55234
7.80875
9.42159
-10.1668
-6.96141
-5.2704
-2.41265
-0.0453493
2.26855
5.27208
7.05109
10.465
-5.36863
-4.30968
-3.23877
-1.59667
-0.0349446
1.56268
3.15829
4.30465
5.17142
-4.41472
-3.51558
-2.64913
-1.299
-0.0105078
1.27535
2.65482
3.55236
4.47311
-2.5559
-2.15459
-1.61623
-0.823083
-0.0123538
0.810989
1.58998
2.14699
2.51715
-1.83178
-1.54095
-1.15596
-0.586337
-0.00155536
0.586132
1.15953
1.55393
1.84611
-0.907594
-0.779857
-0.583655
-0.301994
-0.00351243
0.298459
0.575988
0.776087
0.897865
-0.348242
-0.296753
-0.222079
-0.113243
0.00113441
0.115883
0.225854
0.302003
0.35431
-26.2742
-11.9141
-8.95798
-3.70046
-0.185229
2.93649
8.73304
11.3861
27.8879
-10.7253
-7.66772
-5.73101
-2.67811
-0.0793885
2.59951
5.55233
7.80874
9.42104
-10.1667
-6.96141
-5.27041
-2.41265
-0.0453485
2.26855
5.27209
7.05109
10.4649
-5.36859
-4.30967
-3.23876
-1.59667
-0.034945
1.56268
3.15829
4.30465
5.17138
-4.41471
-3.51559
-2.64913
-1.299
-0.0105074
1.27535
2.65483
3.55236
4.4731
-2.55589
-2.15459
-1.61623
-0.823082
-0.012354
0.810988
1.58998
2.14699
2.51713
-1.83178
-1.54096
-1.15596
-0.586337
-0.00155511
0.586132
1.15953
1.55393
1.84611
-0.907589
-0.779855
-0.583654
-0.301993
-0.0035126
0.298458
0.575986
0.776085
0.897859
-0.348242
-0.296753
-0.222079
-0.113243
0.00113437
0.115883
0.225854
0.302003
0.354309
-26.2751
-11.9213
-8.96295
-3.70235
-0.185497
2.93687
8.73737
11.3904
27.8883
-10.7257
-7.66773
-5.73102
-2.67811
-0.0793874
2.5995
5.55234
7.80874
9.42159
-10.1668
-6.96141
-5.2704
-2.41265
-0.0453497
2.26856
5.27208
7.05109
10.465
-5.36862
-4.30967
-3.23877
-1.59667
-0.0349441
1.56268
3.15829
4.30465
5.17142
-4.41472
-3.51559
-2.64913
-1.299
-0.0105084
1.27535
2.65482
3.55236
4.47311
-2.5559
-2.15459
-1.61623
-0.823082
-0.0123532
0.810988
1.58998
2.14699
2.51715
-1.83178
-1.54095
-1.15596
-0.586336
-0.00155593
0.586131
1.15953
1.55393
1.84611
-0.907595
-0.779858
-0.583656
-0.301995
-0.00351185
0.298459
0.575989
0.776089
0.897867
-0.348242
-0.296753
-0.222079
-0.113243
0.00113446
0.115883
0.225854
0.302003
0.35431
-26.3006
-11.9454
-8.9794
-3.70851
-0.186353
2.93822
8.75195
11.4053
27.9153
-10.7268
-7.66781
-5.73105
-2.67813
-0.0793872
2.59951
5.55237
7.8088
9.42318
-10.167
-6.96141
-5.27037
-2.41265
-0.0453512
2.26856
5.27205
7.05108
10.4652
-5.36874
-4.3097
-3.23878
-1.59668
-0.0349438
1.56268
3.1583
4.30467
5.17153
-4.41477
-3.51558
-2.64912
-1.299
-0.0105089
1.27535
2.65481
3.55235
4.47316
-2.55594
-2.1546
-1.61624
-0.823085
-0.012353
0.81099
1.58999
2.147
2.51719
-1.8318
-1.54095
-1.15596
-0.586336
-0.00155623
0.586131
1.15952
1.55393
1.84612
-0.907608
-0.77986
-0.583657
-0.301995
-0.00351174
0.29846
0.575991
0.776091
0.89788
-0.348244
-0.296751
-0.222077
-0.113242
0.00113435
0.115882
0.225852
0.302001
0.354311
-26.4172
-11.9925
-9.01111
-3.72012
-0.187915
2.94099
8.78064
11.4364
28.0454
-10.7281
-7.66789
-5.73108
-2.67814
-0.0793876
2.59951
5.55241
7.80885
9.42508
-10.1673
-6.9614
-5.27033
-2.41265
-0.0453524
2.26856
5.272
7.05107
10.4656
-5.36893
-4.30972
-3.23879
-1.59669
-0.0349436
1.56269
3.15832
4.30469
5.17171
-4.41487
-3.51557
-2.64911
-1.299
-0.010509
1.27535
2.6548
3.55234
4.47326
-2.55601
-2.15461
-1.61624
-0.823088
-0.012353
0.810993
1.58999
2.147
2.51725
-1.83184
-1.54095
-1.15595
-0.586335
-0.00155608
0.58613
1.15952
1.55393
1.84616
-0.907628
-0.779862
-0.583658
-0.301996
-0.00351191
0.298461
0.575992
0.776093
0.897899
-0.348249
-0.296749
-0.222076
-0.113242
0.00113418
0.115881
0.22585
0.301999
0.354316
-26.6066
-12.0564
-9.05381
-3.73544
-0.189902
2.94478
8.81988
11.4804
28.259
-10.7287
-7.66787
-5.73107
-2.67814
-0.0793879
2.59951
5.5524
7.80883
9.42629
-10.1679
-6.9614
-5.27034
-2.41265
-0.0453521
2.26856
5.272
7.05107
10.4663
-5.36912
-4.30972
-3.23879
-1.59669
-0.0349439
1.56269
3.15832
4.30469
5.17188
-4.41504
-3.51557
-2.64911
-1.299
-0.0105086
1.27535
2.6548
3.55234
4.47342
-2.55608
-2.15461
-1.61624
-0.823088
-0.0123535
0.810993
1.58999
2.147
2.51732
-1.83189
-1.54095
-1.15595
-0.586336
-0.00155556
0.58613
1.15952
1.55393
1.84621
-0.907652
-0.779862
-0.583658
-0.301996
-0.0035123
0.298461
0.575991
0.776093
0.897921
-0.348258
-0.29675
-0.222076
-0.113242
0.00113423
0.115881
0.22585
0.301999
0.354325
)
;

boundaryField
{
    inlet
    {
        type            zeroGradient;
    }
    outlet
    {
        type            fixedValue;
        value           uniform 0;
    }
    lowerWall
    {
        type            zeroGradient;
    }
    upperWall
    {
        type            zeroGradient;
    }
}


// ************************************************************************* //
