/*--------------------------------*- C++ -*----------------------------------*\
  =========                 |
  \\      /  F ield         | OpenFOAM: The Open Source CFD Toolbox
   \\    /   O peration     | Website:  https://openfoam.org
    \\  /    A nd           | Version:  11
     \\/     M anipulation  |
\*---------------------------------------------------------------------------*/
FoamFile
{
    format      ascii;
    class       surfaceScalarField;
    location    "61";
    object      phi;
}
// * * * * * * * * * * * * * * * * * * * * * * * * * * * * * * * * * * * * * //

dimensions      [0 3 -1 0 0 0 0];

internalField   nonuniform List<scalar> 
1944
(
1.65822e-09
-1.88075e-09
2.22452e-10
2.23529e-09
-5.61877e-10
-1.54437e-11
2.54409e-09
-4.0543e-10
9.67338e-11
2.6932e-09
-1.39046e-10
-1.00128e-11
2.71263e-09
-1.56174e-11
-3.97446e-12
2.60816e-09
5.69661e-11
4.81197e-11
2.32674e-09
3.84757e-10
-1.03763e-10
1.80771e-09
4.74345e-10
4.48636e-11
2.14111e-09
-3.33463e-10
-4.97318e-10
-1.03967e-09
-3.43728e-10
-5.51258e-10
-4.24941e-10
-8.29784e-11
-6.13245e-10
-3.12905e-10
-3.05183e-11
-6.09889e-10
-1.2185e-10
-2.05431e-11
-6.16904e-10
-8.90283e-12
2.65833e-13
-6.61235e-10
9.66263e-11
4.71601e-12
-6.11322e-10
2.95826e-10
3.90069e-11
-6.06738e-10
4.29401e-10
4.03277e-11
1.04754e-09
4.86761e-10
-4.87484e-10
-6.78815e-10
1.26481e-10
-5.09189e-10
-4.09819e-10
6.2203e-12
-5.61092e-10
-3.08211e-10
4.73263e-11
-5.53638e-10
-1.30035e-10
7.16233e-13
-5.58092e-10
-2.93392e-12
-1.66591e-12
-5.87758e-10
1.2206e-10
4.86117e-12
-5.47976e-10
3.0945e-10
-5.38783e-11
-5.37563e-10
4.29137e-10
-9.74598e-12
6.72494e-10
-1.62673e-10
-1.86735e-10
-4.42602e-10
-4.9402e-11
-2.68102e-10
-2.95823e-10
-3.25779e-11
-3.37663e-10
-2.23217e-10
-1.53895e-11
-3.57071e-10
-1.00009e-10
-1.06071e-11
-3.57956e-10
-2.76677e-12
6.81676e-13
-3.38021e-10
9.49358e-11
7.19781e-12
-2.68391e-10
2.1991e-10
1.98925e-11
-1.69646e-10
3.00847e-10
2.94954e-11
4.39712e-10
6.30754e-11
-1.56439e-10
-3.17511e-10
3.12716e-11
-2.19871e-10
-2.4169e-10
9.11854e-12
-2.76957e-10
-1.82251e-10
1.61276e-11
-2.92701e-10
-8.62297e-11
1.94917e-12
-2.93974e-10
-9.97141e-13
-5.37589e-13
-2.82097e-10
8.47852e-11
-1.37076e-12
-2.26099e-10
1.81968e-10
-1.83989e-11
-1.60114e-10
2.46056e-10
-1.11711e-11
3.17303e-10
-3.77047e-11
-7.73173e-11
-2.27182e-10
-1.29666e-11
-1.26813e-10
-1.81392e-10
-1.07872e-11
-1.66846e-10
-1.36568e-10
-5.62304e-12
-1.82167e-10
-6.69624e-11
-3.9204e-12
-1.82577e-10
-9.25251e-13
3.6865e-13
-1.66844e-10
6.56667e-11
3.38795e-12
-1.27414e-10
1.35463e-10
7.08266e-12
-7.47591e-11
1.82519e-10
1.08093e-11
2.26692e-10
1.58487e-11
-5.57283e-11
-1.79991e-10
8.54595e-12
-9.09175e-11
-1.50369e-10
4.21434e-12
-1.19785e-10
-1.12872e-10
5.15393e-12
-1.30918e-10
-5.68519e-11
1.13195e-12
-1.31373e-10
-3.70614e-13
-2.66521e-13
-1.20959e-10
5.66989e-11
-1.28208e-12
-9.24562e-11
1.12614e-10
-5.93521e-12
-5.63946e-11
1.51483e-10
-4.98575e-12
1.80079e-10
-9.9794e-12
-2.57879e-11
-1.50041e-10
-4.1639e-12
-4.48958e-11
-1.27573e-10
-3.66785e-12
-5.99664e-11
-9.55843e-11
-2.21064e-12
-6.65016e-11
-4.89068e-11
-1.39383e-12
-6.66434e-11
-3.36425e-13
1.27669e-13
-5.99791e-11
4.86709e-11
1.3816e-12
-4.51182e-11
9.51374e-11
2.65863e-12
-2.53827e-11
1.27886e-10
3.91903e-12
1.49834e-10
4.90596e-12
-1.01951e-11
3.28748e-12
-1.73323e-11
2.32305e-12
-2.30917e-11
2.03698e-12
-2.54932e-11
7.47721e-13
-2.5591e-11
-1.0618e-13
-2.33586e-11
-9.44235e-13
-1.76505e-11
-2.35145e-12
-1.03918e-11
-2.68074e-12
-3.76524e-12
4.43638e-09
-4.49716e-09
2.8317e-10
5.50972e-09
-1.37913e-09
2.90038e-10
6.42845e-09
-9.85703e-10
1.63887e-10
6.77295e-09
-3.4216e-10
-1.22721e-11
6.81301e-09
-3.89497e-11
-5.31653e-12
6.6391e-09
1.42546e-10
8.03334e-11
5.7741e-09
9.29474e-10
-1.68857e-10
4.98772e-09
1.16215e-09
-3.30705e-10
5.08208e-09
-4.27926e-10
-1.24274e-09
-2.79868e-09
-7.99445e-10
-1.42921e-09
-1.12793e-09
-1.47707e-10
-1.55611e-09
-8.32512e-10
-5.67779e-11
-1.56273e-09
-3.2087e-10
-3.51918e-11
-1.57917e-09
-2.26733e-11
3.49347e-13
-1.69213e-09
2.51423e-10
8.94643e-12
-1.58789e-09
7.93722e-10
7.04588e-11
-1.61161e-09
1.14485e-09
8.1322e-11
2.89156e-09
1.06556e-09
-1.20692e-09
-1.66784e-09
2.02453e-10
-1.32165e-09
-1.0165e-09
9.09152e-12
-1.42034e-09
-7.62948e-10
7.66741e-11
-1.41821e-09
-3.23234e-10
9.55124e-13
-1.43252e-09
-7.26464e-12
-2.9789e-12
-1.48917e-09
3.06321e-10
7.47653e-12
-1.4263e-09
7.64284e-10
-8.80077e-11
-1.34007e-09
1.06719e-09
-1.78232e-11
1.63767e-09
-2.49146e-10
-4.68675e-10
-1.16745e-09
-8.10376e-11
-6.89529e-10
-7.74832e-10
-5.33684e-11
-8.57732e-10
-5.84865e-10
-2.51995e-11
-9.13451e-10
-2.60739e-10
-1.73742e-11
-9.14622e-10
-6.47269e-12
9.82316e-13
-8.60612e-10
2.47889e-10
1.17152e-11
-6.88135e-10
5.79483e-10
3.2137e-11
-4.3014e-10
7.90908e-10
4.77737e-11
1.16916e-09
1.01348e-10
-3.92221e-10
-7.94704e-10
5.06985e-11
-5.65858e-10
-6.07e-10
1.47128e-11
-7.03361e-10
-4.57433e-10
2.62433e-11
-7.48472e-10
-2.16842e-10
3.14552e-12
-7.51942e-10
-2.62803e-12
-9.35818e-13
-7.16355e-10
2.13574e-10
-2.1456e-12
-5.81532e-10
4.55878e-10
-3.0097e-11
-4.01307e-10
6.17677e-10
-1.81513e-11
7.91219e-10
-6.1073e-11
-1.95439e-10
-5.90871e-10
-2.13088e-11
-3.24988e-10
-4.7053e-10
-1.7716e-11
-4.24484e-10
-3.54295e-10
-9.229e-12
-4.65501e-10
-1.73282e-10
-6.44454e-12
-4.66177e-10
-2.08178e-12
5.34976e-13
-4.25055e-10
1.7036e-10
5.52789e-12
-3.26041e-10
3.52469e-10
1.14481e-11
-1.89746e-10
4.74513e-10
1.76149e-11
5.91519e-10
2.57967e-11
-1.40801e-10
-4.55354e-10
1.38383e-11
-2.33022e-10
-3.80853e-10
6.83225e-12
-3.04721e-10
-2.85823e-10
8.36236e-12
-3.3448e-10
-1.44098e-10
1.87653e-12
-3.35549e-10
-1.00908e-12
-4.85805e-13
-3.07859e-10
1.43632e-10
-1.98474e-12
-2.36847e-10
2.84861e-10
-9.69338e-12
-1.42603e-10
3.83397e-10
-8.0071e-12
4.54861e-10
-1.61509e-11
-6.53959e-11
-3.87305e-10
-6.81789e-12
-1.14832e-10
-3.29062e-10
-5.98631e-12
-1.52674e-10
-2.46563e-10
-3.62153e-12
-1.6983e-10
-1.26015e-10
-2.28564e-12
-1.70104e-10
-7.50506e-13
1.50812e-13
-1.52895e-10
1.25609e-10
2.23763e-12
-1.15357e-10
2.45755e-10
4.25151e-12
-6.4555e-11
3.30257e-10
6.34185e-12
3.87306e-10
7.93946e-12
-2.58257e-11
5.35681e-12
-4.43817e-11
3.78769e-12
-5.87848e-11
3.30901e-12
-6.51243e-11
1.2208e-12
-6.53614e-11
-2.04694e-13
-5.94849e-11
-1.56257e-12
-4.51926e-11
-3.87258e-12
-2.63466e-11
-4.38912e-12
-6.17508e-12
5.89259e-09
-5.79619e-09
1.86744e-10
7.75138e-09
-1.92046e-09
3.5141e-10
9.14702e-09
-1.36913e-09
1.37559e-10
9.62115e-09
-4.78375e-10
-7.94422e-12
9.67405e-09
-5.48995e-11
-3.53832e-12
9.48531e-09
2.01417e-10
6.84997e-11
8.16681e-09
1.28574e-09
-1.3673e-10
6.63215e-09
1.62067e-09
-4.16539e-10
6.5046e-09
-3.00453e-10
-1.7661e-09
-4.0943e-09
-7.3518e-10
-2.06431e-09
-1.64287e-09
-1.27071e-10
-2.22647e-09
-1.21372e-09
-4.99834e-11
-2.24479e-09
-4.65694e-10
-2.95384e-11
-2.26739e-09
-3.22434e-11
2.32671e-13
-2.42889e-09
3.63932e-10
8.04546e-12
-2.29549e-09
1.16185e-09
6.08954e-11
-2.3426e-09
1.67511e-09
7.39534e-11
4.26076e-09
9.66679e-10
-1.70679e-09
-2.34954e-09
1.64398e-10
-1.90863e-09
-1.43929e-09
6.93915e-12
-2.02936e-09
-1.07913e-09
6.30656e-11
-2.03684e-09
-4.5795e-10
6.9664e-13
-2.05957e-09
-1.01064e-11
-2.59266e-12
-2.12943e-09
4.36461e-10
5.66225e-12
-2.06394e-09
1.08046e-09
-7.28127e-11
-1.90362e-09
1.514e-09
-1.65599e-11
2.30112e-09
-1.93455e-10
-6.6695e-10
-1.69603e-09
-6.74781e-11
-9.91971e-10
-1.12308e-09
-4.44978e-11
-1.22744e-09
-8.47799e-10
-2.09848e-11
-1.31116e-09
-3.77113e-10
-1.44716e-11
-1.31222e-09
-8.75784e-12
6.28833e-13
-1.23293e-09
3.59061e-10
9.88057e-12
-9.89018e-10
8.42388e-10
2.62253e-11
-6.15459e-10
1.14872e-09
3.94485e-11
1.70434e-09
8.25607e-11
-5.57909e-10
-1.12919e-09
4.17334e-11
-8.1432e-10
-8.64314e-10
1.21581e-11
-1.00642e-09
-6.51107e-10
2.17113e-11
-1.07414e-09
-3.08877e-10
2.6028e-12
-1.07937e-09
-3.77597e-12
-7.01489e-13
-1.02487e-09
3.04667e-10
-1.74655e-12
-8.36686e-10
6.48498e-10
-2.48832e-11
-5.70611e-10
8.79617e-10
-1.50987e-11
1.1227e-09
-5.00554e-11
-2.79021e-10
-8.5358e-10
-1.783e-11
-4.66827e-10
-6.79349e-10
-1.48601e-11
-6.07856e-10
-5.11526e-10
-7.73527e-12
-6.67859e-10
-2.49904e-10
-5.40257e-12
-6.68621e-10
-2.73913e-12
3.1056e-13
-6.09087e-10
2.46036e-10
4.65433e-12
-4.68117e-10
5.09683e-10
9.28092e-12
-2.71459e-10
6.85897e-10
1.46227e-11
8.55806e-10
2.12298e-11
-2.00973e-10
-6.50093e-10
1.13316e-11
-3.34729e-10
-5.44303e-10
5.61795e-12
-4.36342e-10
-4.08454e-10
6.88505e-12
-4.79811e-10
-2.05988e-10
1.60632e-12
-4.81373e-10
-1.50396e-12
-3.7124e-13
-4.40874e-10
2.05325e-10
-1.49922e-12
-3.40204e-10
4.06861e-10
-7.88899e-12
-2.03592e-10
5.47808e-10
-6.40666e-12
6.48941e-10
-1.30905e-11
-9.34954e-11
-5.57789e-10
-5.62802e-12
-1.64807e-10
-4.74009e-10
-4.93281e-12
-2.18691e-10
-3.55171e-10
-3.0113e-12
-2.436e-10
-1.8143e-10
-1.90004e-12
-2.43951e-10
-9.78985e-13
-2.12558e-15
-2.19162e-10
1.81013e-10
1.80237e-12
-1.65559e-10
3.54276e-10
3.28425e-12
-9.24342e-11
4.76011e-10
5.11157e-12
5.58158e-10
6.34504e-12
-3.69031e-11
4.40373e-12
-6.37257e-11
3.12272e-12
-8.42004e-11
2.71796e-12
-9.34092e-11
1.00923e-12
-9.37636e-11
-1.64272e-13
-8.52119e-11
-1.3065e-12
-6.49032e-11
-3.19003e-12
-3.76534e-11
-3.63024e-12
-5.08612e-12
6.62211e-09
-6.498e-09
6.25346e-11
9.0639e-09
-2.23857e-09
1.47825e-10
1.07431e-08
-1.59416e-09
5.26191e-11
1.12966e-08
-5.58797e-10
-2.55202e-12
1.13584e-08
-6.44195e-11
-1.17305e-12
1.1165e-08
2.36261e-10
2.6462e-11
9.58555e-09
1.4936e-09
-5.1399e-11
7.45393e-09
1.89212e-09
-1.76743e-10
7.25906e-09
-1.05569e-10
-2.08089e-09
-4.86455e-09
-2.87613e-10
-2.44631e-09
-1.95086e-09
-4.92375e-11
-2.62921e-09
-1.44164e-09
-1.95217e-11
-2.65406e-09
-5.5217e-10
-1.12873e-11
-2.68041e-09
-3.77997e-11
-4.86239e-14
-2.87161e-09
4.31899e-10
3.57667e-12
-2.72318e-09
1.38258e-09
2.34451e-11
-2.78289e-09
1.99624e-09
2.93705e-11
5.06585e-09
3.76816e-10
-2.00598e-09
-2.75666e-09
6.2189e-11
-2.26055e-09
-1.69276e-09
2.82664e-12
-2.39464e-09
-1.26856e-09
2.4168e-11
-2.40798e-09
-5.3857e-10
3.7528e-13
-2.43599e-09
-1.16325e-11
-9.79896e-13
-2.51434e-09
5.14819e-10
2.0029e-12
-2.44773e-09
1.27041e-09
-2.78643e-11
-2.24332e-09
1.78288e-09
-6.96903e-12
2.70035e-09
-7.14085e-11
-7.85732e-10
-2.01198e-09
-2.6113e-11
-1.1734e-09
-1.33187e-09
-1.74457e-11
-1.44924e-09
-1.00537e-09
-8.16605e-12
-1.54978e-09
-4.46803e-10
-5.63109e-12
-1.55082e-09
-1.00188e-11
5.07739e-14
-1.45644e-09
4.2594e-10
4.25414e-12
-1.16985e-09
1.00025e-09
9.7613e-12
-7.27012e-10
1.36376e-09
1.54617e-11
2.0244e-09
3.12712e-11
-6.57185e-10
-1.32924e-09
1.602e-11
-9.63364e-10
-1.01863e-09
4.79968e-12
-1.18823e-09
-7.67223e-10
8.40789e-12
-1.26953e-09
-3.64025e-10
1.06517e-12
-1.27583e-09
-4.3952e-12
-1.14713e-13
-1.20995e-09
3.5941e-10
-5.99876e-13
-9.89709e-10
7.64167e-10
-9.51217e-12
-6.71963e-10
1.03696e-09
-5.93517e-12
1.32129e-09
-1.89042e-11
-3.29115e-10
-1.01074e-09
-7.03835e-12
-5.51919e-10
-8.04596e-10
-5.96137e-12
-7.1787e-10
-6.05812e-10
-3.08684e-12
-7.8927e-10
-2.95836e-10
-2.14012e-12
-7.901e-10
-3.09496e-12
-4.8763e-14
-7.19537e-10
2.91488e-10
1.97708e-12
-5.53412e-10
6.04046e-10
3.31763e-12
-3.20506e-10
8.12794e-10
5.73925e-12
1.01396e-09
8.03751e-12
-2.37034e-10
-7.66609e-10
4.25419e-12
-3.95738e-10
-6.42354e-10
2.1485e-12
-5.153e-10
-4.8201e-10
2.61956e-12
-5.67002e-10
-2.43102e-10
7.11188e-13
-5.68866e-10
-1.78164e-12
-7.09676e-14
-5.20682e-10
2.42363e-10
-3.66299e-13
-4.02215e-10
4.80085e-10
-2.82388e-12
-2.40148e-10
6.46494e-10
-2.16277e-12
7.65113e-10
-4.71027e-12
-1.10333e-10
-6.59807e-10
-2.10996e-12
-1.9478e-10
-5.60969e-10
-1.84234e-12
-2.58291e-10
-4.20326e-10
-1.16549e-12
-2.8786e-10
-2.1467e-10
-7.21526e-13
-2.88266e-10
-1.10842e-12
-1.85137e-13
-2.58938e-10
2.14265e-10
6.40908e-13
-1.95698e-10
4.19394e-10
9.05409e-13
-1.09164e-10
5.63475e-10
1.76709e-12
6.60405e-10
2.06995e-12
-4.35427e-11
1.65837e-12
-7.53302e-11
1.18938e-12
-9.94483e-11
1.01953e-12
-1.1038e-10
3.90617e-13
-1.10807e-10
-4.46883e-14
-1.00651e-10
-5.14915e-13
-7.67327e-11
-1.19235e-12
-4.44337e-11
-1.39094e-12
-1.92392e-12
6.85586e-09
-6.73176e-09
-6.14643e-11
9.49455e-09
-2.3438e-09
-1.47051e-10
1.12678e-08
-1.66851e-09
-5.19228e-11
1.18479e-08
-5.85443e-10
2.89341e-12
1.19129e-08
-6.75924e-11
1.34431e-12
1.17187e-08
2.47816e-10
-2.68503e-11
1.00541e-08
1.56205e-09
5.07061e-11
7.71936e-09
1.98232e-09
1.75611e-10
7.50928e-09
1.04358e-10
-2.18598e-09
-5.12016e-09
2.86581e-10
-2.57381e-09
-2.05335e-09
4.79087e-11
-2.76356e-09
-1.51747e-09
1.91854e-11
-2.79049e-09
-5.80921e-10
1.11104e-11
-2.8181e-09
-3.96179e-11
-5.80909e-13
-3.01923e-09
4.5464e-10
-1.60856e-12
-2.86619e-09
1.45614e-09
-2.38843e-11
-2.93015e-09
2.10384e-09
-2.79392e-11
5.33196e-09
-3.75945e-10
-2.10559e-09
-2.89207e-09
-5.99831e-11
-2.37781e-09
-1.7772e-09
-9.79084e-13
-2.51638e-09
-1.33165e-09
-2.27678e-11
-2.53168e-09
-5.65405e-10
2.66532e-13
-2.5615e-09
-1.21084e-11
1.2664e-12
-2.64279e-09
5.40989e-10
-2.81767e-12
-2.57589e-09
1.33378e-09
2.71945e-11
-2.35686e-09
1.87265e-09
5.08605e-12
2.8337e-09
6.95722e-11
-8.25298e-10
-2.11711e-09
2.3906e-11
-1.23387e-09
-1.40143e-09
1.49329e-11
-1.52317e-09
-1.05785e-09
7.26749e-12
-1.62932e-09
-4.70008e-10
5.02555e-12
-1.63037e-09
-1.0419e-11
-7.67193e-13
-1.53096e-09
4.48266e-10
-1.90573e-12
-1.23019e-09
1.05289e-09
-1.0352e-11
-7.64268e-10
1.43551e-09
-1.28431e-11
2.13093e-09
-3.01362e-11
-6.90257e-10
-1.39583e-09
-1.48206e-11
-1.01304e-09
-1.07006e-09
-3.70925e-12
-1.24883e-09
-8.05912e-10
-7.58957e-12
-1.33466e-09
-3.82394e-10
-6.6509e-13
-1.34131e-09
-4.58888e-12
8.20886e-13
-1.27164e-09
3.77674e-10
5.16142e-13
-1.0407e-09
8.02741e-10
9.49867e-12
-7.0571e-10
1.08945e-09
4.97518e-12
1.38745e-09
1.88471e-11
-3.45805e-10
-1.06305e-09
5.83396e-12
-5.8028e-10
-8.46336e-10
4.53964e-12
-7.5454e-10
-6.37231e-10
2.41312e-12
-8.2974e-10
-3.11139e-10
1.74375e-12
-8.30595e-10
-3.20652e-12
-6.62347e-13
-7.5636e-10
3.06648e-10
-9.92538e-13
-5.81853e-10
6.35506e-10
-4.15987e-12
-3.3686e-10
8.55106e-10
-4.79763e-12
1.06662e-09
-7.99178e-12
-2.49048e-10
-8.05402e-10
-4.36552e-12
-4.16071e-10
-6.75033e-10
-2.0831e-12
-5.41617e-10
-5.06524e-10
-2.53454e-12
-5.96065e-10
-2.55469e-10
-3.82838e-13
-5.98031e-10
-1.8707e-12
5.48356e-13
-5.47284e-10
2.54713e-10
1.03951e-12
-4.22885e-10
5.04497e-10
3.80258e-12
-2.52328e-10
6.79397e-10
3.22182e-12
8.03801e-10
5.88836e-12
-1.15942e-10
-6.93773e-10
2.22534e-12
-2.04768e-10
-5.89954e-10
1.94999e-12
-2.7149e-10
-4.42043e-10
1.05964e-12
-3.02613e-10
-2.25749e-10
7.24962e-13
-3.03039e-10
-1.15018e-12
-6.29059e-13
-2.722e-10
2.25351e-10
-8.06398e-13
-2.05748e-10
4.411e-10
-2.41672e-12
-1.14741e-10
5.92631e-10
-2.53079e-12
6.9445e-10
-3.56245e-12
-4.5755e-11
-1.692e-12
-7.9198e-11
-1.15479e-12
-1.04531e-10
-1.05921e-12
-1.16037e-10
-3.50303e-13
-1.16488e-10
1.29382e-13
-1.05798e-10
4.32032e-13
-8.06764e-11
1.26477e-12
-4.66935e-11
1.31796e-12
1.92485e-12
6.62211e-09
-6.49798e-09
-1.86042e-10
9.0639e-09
-2.23857e-09
-3.51163e-10
1.07431e-08
-1.59417e-09
-1.37041e-10
1.12966e-08
-5.58798e-10
8.19463e-12
1.13584e-08
-6.44204e-11
3.51125e-12
1.1165e-08
2.36264e-10
-6.82192e-11
9.58554e-09
1.4936e-09
1.35936e-10
7.45393e-09
1.89212e-09
4.16013e-10
7.25905e-09
2.99585e-10
-2.08088e-09
-4.86454e-09
7.34609e-10
-2.44631e-09
-1.95086e-09
1.26312e-10
-2.62921e-09
-1.44164e-09
4.97888e-11
-2.65405e-09
-5.5217e-10
2.94358e-11
-2.68041e-09
-3.77997e-11
-6.24735e-13
-2.87161e-09
4.31899e-10
-6.88345e-12
-2.72318e-09
1.38258e-09
-6.11277e-11
-2.78288e-09
1.99624e-09
-7.31488e-11
5.06584e-09
-9.66208e-10
-2.00598e-09
-2.75665e-09
-1.6317e-10
-2.26055e-09
-1.69276e-09
-6.12321e-12
-2.39464e-09
-1.26856e-09
-6.21069e-11
-2.40798e-09
-5.3857e-10
-3.17409e-13
-2.43599e-09
-1.16325e-11
2.64311e-12
-2.51434e-09
5.1482e-10
-5.61798e-12
-2.44773e-09
1.27041e-09
7.19939e-11
-2.24332e-09
1.78288e-09
1.57554e-11
2.70034e-09
1.9219e-10
-7.8573e-10
-2.01198e-09
6.623e-11
-1.1734e-09
-1.33187e-09
4.30643e-11
-1.44924e-09
-1.00537e-09
2.04705e-11
-1.54978e-09
-4.46803e-10
1.41194e-11
-1.55082e-09
-1.00189e-11
-1.07434e-12
-1.45644e-09
4.25941e-10
-8.52059e-12
-1.16985e-09
1.00025e-09
-2.65502e-11
-7.27011e-10
1.36376e-09
-3.79592e-11
2.0244e-09
-8.19177e-11
-6.57184e-10
-1.32923e-09
-4.10662e-11
-9.63365e-10
-1.01863e-09
-1.16435e-11
-1.18823e-09
-7.67223e-10
-2.12043e-11
-1.26953e-09
-3.64025e-10
-2.37711e-12
-1.27583e-09
-4.3953e-12
1.09333e-12
-1.20995e-09
3.5941e-10
2.00436e-12
-9.89709e-10
7.64167e-10
2.45753e-11
-6.71962e-10
1.03696e-09
1.45515e-11
1.32128e-09
5.00194e-11
-3.29114e-10
-1.01074e-09
1.71499e-11
-5.51919e-10
-8.04596e-10
1.40349e-11
-7.1787e-10
-6.05812e-10
7.35258e-12
-7.8927e-10
-2.95836e-10
5.18332e-12
-7.901e-10
-3.09497e-12
-7.10733e-13
-7.19537e-10
2.91489e-10
-4.09166e-12
-5.53412e-10
6.04046e-10
-9.75098e-12
-3.20506e-10
8.12794e-10
-1.41062e-11
1.01396e-09
-2.12053e-11
-2.37033e-10
-7.66607e-10
-1.13909e-11
-3.95737e-10
-6.42353e-10
-5.5374e-12
-5.153e-10
-4.8201e-10
-6.84798e-12
-5.67002e-10
-2.43102e-10
-1.31111e-12
-5.68866e-10
-1.78188e-12
5.17615e-13
-5.20681e-10
2.42363e-10
2.05414e-12
-4.02215e-10
4.80084e-10
8.24081e-12
-2.40147e-10
6.46494e-10
7.08233e-12
7.65111e-10
1.3637e-11
-1.10333e-10
-6.59805e-10
5.69342e-12
-1.9478e-10
-5.60969e-10
5.00977e-12
-2.58292e-10
-4.20326e-10
2.95443e-12
-2.87861e-10
-2.1467e-10
1.90465e-12
-2.88266e-10
-1.10856e-12
-4.55215e-13
-2.58939e-10
2.14265e-10
-1.90128e-12
-1.95698e-10
4.19393e-10
-4.13003e-12
-1.09164e-10
5.63475e-10
-5.52612e-12
6.60403e-10
-7.18831e-12
-4.35426e-11
-4.42259e-12
-7.533e-11
-3.10361e-12
-9.9448e-11
-2.73944e-12
-1.1038e-10
-9.86893e-13
-1.10806e-10
2.12401e-13
-1.00651e-10
1.26108e-12
-7.67325e-11
3.22969e-12
-4.44336e-11
3.58809e-12
5.08773e-12
5.89259e-09
-5.79619e-09
-2.82953e-10
7.75138e-09
-1.92046e-09
-2.90221e-10
9.14702e-09
-1.36913e-09
-1.63589e-10
9.62115e-09
-4.78376e-10
1.24132e-11
9.67405e-09
-5.49008e-11
5.13905e-12
9.48531e-09
2.01421e-10
-7.95957e-11
8.1668e-09
1.28574e-09
1.68125e-10
6.63216e-09
1.62068e-09
3.30715e-10
6.5046e-09
4.27508e-10
-1.7661e-09
-4.09432e-09
7.99278e-10
-2.06431e-09
-1.64287e-09
1.47443e-10
-2.22647e-09
-1.21372e-09
5.67321e-11
-2.24479e-09
-4.65694e-10
3.51656e-11
-2.26739e-09
-3.22435e-11
-5.36533e-13
-2.42889e-09
3.63932e-10
-8.4499e-12
-2.29549e-09
1.16185e-09
-7.05721e-11
-2.3426e-09
1.67511e-09
-8.10642e-11
4.26077e-09
-1.06546e-09
-1.70679e-09
-2.34954e-09
-2.0215e-10
-1.90864e-09
-1.4393e-09
-9.17007e-12
-2.02937e-09
-1.07913e-09
-7.62004e-11
-2.03684e-09
-4.57951e-10
-8.34379e-13
-2.05957e-09
-1.01064e-11
2.83771e-12
-2.12943e-09
4.36463e-10
-6.80218e-12
-2.06394e-09
1.08045e-09
8.72174e-11
-1.90362e-09
1.514e-09
1.79467e-11
2.30112e-09
2.48514e-10
-6.66949e-10
-1.69603e-09
8.06584e-11
-9.9197e-10
-1.12308e-09
5.28879e-11
-1.22743e-09
-8.47799e-10
2.50624e-11
-1.31116e-09
-3.77113e-10
1.72569e-11
-1.31222e-09
-8.75796e-12
-1.18932e-12
-1.23293e-09
3.59061e-10
-1.11877e-11
-9.89017e-10
8.42387e-10
-3.2292e-11
-6.15459e-10
1.14872e-09
-4.72686e-11
1.70434e-09
-1.01184e-10
-5.57909e-10
-1.12919e-09
-5.05307e-11
-8.14321e-10
-8.64315e-10
-1.47123e-11
-1.00642e-09
-6.51107e-10
-2.605e-11
-1.07414e-09
-3.08877e-10
-3.07859e-12
-1.07937e-09
-3.77616e-12
1.03727e-12
-1.02487e-09
3.04668e-10
2.61044e-12
-8.36686e-10
6.48498e-10
2.9629e-11
-5.7061e-10
8.79617e-10
1.7971e-11
1.1227e-09
6.10574e-11
-2.79021e-10
-8.53581e-10
2.11059e-11
-4.66827e-10
-6.7935e-10
1.7424e-11
-6.07856e-10
-5.11526e-10
9.11806e-12
-6.67858e-10
-2.49904e-10
6.39087e-12
-6.68621e-10
-2.73918e-12
-6.50972e-13
-6.09086e-10
2.46036e-10
-5.30574e-12
-4.68116e-10
5.09683e-10
-1.16251e-11
-2.71459e-10
6.85897e-10
-1.75018e-11
8.55808e-10
-2.57922e-11
-2.00973e-10
-6.50093e-10
-1.38492e-11
-3.34729e-10
-5.44303e-10
-6.75034e-12
-4.36341e-10
-4.08454e-10
-8.3659e-12
-4.7981e-10
-2.05988e-10
-1.6533e-12
-4.81372e-10
-1.50439e-12
3.65334e-13
-4.40873e-10
2.05325e-10
2.35866e-12
-3.40204e-10
4.0686e-10
9.52846e-12
-2.03592e-10
5.47807e-10
8.29591e-12
6.4894e-10
1.61445e-11
-9.34957e-11
-5.5779e-10
6.83963e-12
-1.64808e-10
-4.74009e-10
6.03706e-12
-2.18692e-10
-3.55171e-10
3.60664e-12
-2.43601e-10
-1.8143e-10
2.3079e-12
-2.43951e-10
-9.79289e-13
-3.02532e-13
-2.19163e-10
1.81013e-10
-2.24858e-12
-1.65559e-10
3.54276e-10
-4.52413e-12
-9.24346e-11
4.76011e-10
-6.42984e-12
5.58159e-10
-8.20874e-12
-3.69029e-11
-5.36348e-12
-6.37253e-11
-3.78363e-12
-8.41999e-11
-3.31305e-12
-9.34086e-11
-1.21539e-12
-9.3763e-11
2.20676e-13
-8.52112e-11
1.55401e-12
-6.49028e-11
3.88008e-12
-3.76532e-11
4.37287e-12
6.17873e-12
4.43641e-09
-4.49719e-09
-2.22542e-10
5.50972e-09
-1.37913e-09
1.51915e-11
6.42845e-09
-9.85705e-10
-9.66296e-11
6.77295e-09
-3.42161e-10
1.00605e-11
6.81302e-09
-3.89507e-11
3.81421e-12
6.6391e-09
1.42549e-10
-4.7508e-11
5.7741e-09
9.29474e-10
1.03336e-10
4.98775e-09
1.16215e-09
-4.46745e-11
5.08211e-09
3.33411e-10
-1.24274e-09
-2.7987e-09
3.43769e-10
-1.42921e-09
-1.12793e-09
8.29973e-11
-1.55611e-09
-8.32512e-10
3.05384e-11
-1.56273e-09
-3.2087e-10
2.05524e-11
-1.57917e-09
-2.26734e-11
-3.01081e-13
-1.69213e-09
2.51424e-10
-4.66994e-12
-1.58789e-09
7.93721e-10
-3.90188e-11
-1.61162e-09
1.14485e-09
-4.03651e-11
2.89159e-09
-4.86837e-10
-1.20692e-09
-1.66785e-09
-1.26625e-10
-1.32166e-09
-1.0165e-09
-6.584e-12
-1.42034e-09
-7.62949e-10
-4.72085e-11
-1.41822e-09
-3.23234e-10
-7.32907e-13
-1.43252e-09
-7.26468e-12
1.51502e-12
-1.48917e-09
3.06323e-10
-4.23088e-12
-1.4263e-09
7.64284e-10
5.34063e-11
-1.34007e-09
1.06719e-09
1.01496e-11
1.63768e-09
1.62514e-10
-4.68675e-10
-1.16746e-09
4.94784e-11
-6.89528e-10
-7.74832e-10
3.26304e-11
-8.57731e-10
-5.84865e-10
1.54334e-11
-9.13449e-10
-2.60739e-10
1.06187e-11
-9.1462e-10
-6.47288e-12
-7.17391e-13
-8.60611e-10
2.4789e-10
-7.1904e-12
-6.88134e-10
5.79482e-10
-1.99102e-11
-4.3014e-10
7.90909e-10
-2.95463e-11
1.16917e-09
-6.31368e-11
-3.92222e-10
-7.9471e-10
-3.13469e-11
-5.65859e-10
-6.07e-10
-9.29818e-12
-7.03362e-10
-4.57433e-10
-1.61201e-11
-7.48473e-10
-2.16842e-10
-1.9644e-12
-7.51943e-10
-2.62823e-12
4.95773e-13
-7.16354e-10
2.13574e-10
1.7268e-12
-5.81533e-10
4.55878e-10
1.80564e-11
-4.01307e-10
6.17678e-10
1.11936e-11
7.91224e-10
3.77035e-11
-1.95439e-10
-5.90876e-10
1.30118e-11
-3.24987e-10
-4.70531e-10
1.08023e-11
-4.24484e-10
-3.54295e-10
5.65028e-12
-4.65501e-10
-1.73283e-10
3.94606e-12
-4.66176e-10
-2.08186e-12
-3.38386e-13
-4.25054e-10
1.7036e-10
-3.38465e-12
-3.26041e-10
3.52469e-10
-7.07568e-12
-1.89747e-10
4.74513e-10
-1.08822e-11
5.91524e-10
-1.58524e-11
-1.40801e-10
-4.55357e-10
-8.53615e-12
-2.33022e-10
-3.80852e-10
-4.16542e-12
-3.0472e-10
-2.85823e-10
-5.17069e-12
-3.34479e-10
-1.44097e-10
-1.02193e-12
-3.35548e-10
-1.00958e-12
9.92329e-14
-3.07858e-10
1.43632e-10
1.4465e-12
-2.36846e-10
2.84859e-10
5.65249e-12
-1.42603e-10
3.83396e-10
5.02492e-12
4.54863e-10
9.7814e-12
-6.53963e-11
-3.87308e-10
4.16157e-12
-1.14833e-10
-3.29062e-10
3.68768e-12
-1.52675e-10
-2.46563e-10
2.21684e-12
-1.69831e-10
-1.26015e-10
1.40975e-12
-1.70105e-10
-7.50905e-13
-1.07536e-13
-1.52896e-10
1.25609e-10
-1.36357e-12
-1.15358e-10
2.45755e-10
-2.61509e-12
-6.45554e-11
3.30257e-10
-3.86101e-12
3.87309e-10
-4.86273e-12
-2.58255e-11
-3.28707e-12
-4.43814e-11
-2.32584e-12
-5.87843e-11
-2.03334e-12
-6.51236e-11
-7.50361e-13
-6.53607e-11
1.04116e-13
-5.94841e-11
9.51774e-13
-4.51922e-11
2.34461e-12
-2.63465e-11
2.68053e-12
3.76811e-12
1.65822e-09
-1.88077e-09
2.23529e-09
-5.61877e-10
2.54409e-09
-4.0543e-10
2.6932e-09
-1.39046e-10
2.71263e-09
-1.56177e-11
2.60816e-09
5.69666e-11
2.32674e-09
3.84757e-10
1.80772e-09
4.74346e-10
2.14113e-09
-4.97319e-10
-1.03968e-09
-5.51258e-10
-4.24941e-10
-6.13245e-10
-3.12905e-10
-6.09889e-10
-1.2185e-10
-6.16905e-10
-8.90288e-12
-6.61235e-10
9.66268e-11
-6.11321e-10
2.95825e-10
-6.06741e-10
4.29401e-10
1.04755e-09
-4.87486e-10
-6.78819e-10
-5.0919e-10
-4.0982e-10
-5.61092e-10
-3.08211e-10
-5.53639e-10
-1.30036e-10
-5.58093e-10
-2.93392e-12
-5.87758e-10
1.22061e-10
-5.47977e-10
3.0945e-10
-5.37564e-10
4.29138e-10
6.72498e-10
-1.86735e-10
-4.42606e-10
-2.68101e-10
-2.95824e-10
-3.37662e-10
-2.23217e-10
-3.5707e-10
-1.00009e-10
-3.57955e-10
-2.76685e-12
-3.3802e-10
9.49363e-11
-2.6839e-10
2.1991e-10
-1.69646e-10
3.00848e-10
4.39715e-10
-1.5644e-10
-3.17513e-10
-2.19871e-10
-2.4169e-10
-2.76957e-10
-1.82251e-10
-2.92701e-10
-8.62298e-11
-2.93975e-10
-9.97212e-13
-2.82097e-10
8.47854e-11
-2.26099e-10
1.81968e-10
-1.60114e-10
2.46056e-10
3.17305e-10
-7.73174e-11
-2.27184e-10
-1.26813e-10
-1.81392e-10
-1.66846e-10
-1.36568e-10
-1.82167e-10
-6.69625e-11
-1.82577e-10
-9.25304e-13
-1.66843e-10
6.56669e-11
-1.27413e-10
1.35463e-10
-7.47592e-11
1.82519e-10
2.26693e-10
-5.57283e-11
-1.79992e-10
-9.09173e-11
-1.50368e-10
-1.19785e-10
-1.12872e-10
-1.30917e-10
-5.68517e-11
-1.31373e-10
-3.70801e-13
-1.20958e-10
5.66988e-11
-9.2456e-11
1.12613e-10
-5.63944e-11
1.51483e-10
1.8008e-10
-2.57881e-11
-1.50042e-10
-4.48961e-11
-1.27573e-10
-5.99667e-11
-9.55843e-11
-6.65019e-11
-4.89067e-11
-6.66436e-11
-3.36589e-13
-5.99794e-11
4.8671e-11
-4.51184e-11
9.51371e-11
-2.53829e-11
1.27886e-10
1.49834e-10
-1.0195e-11
-1.73321e-11
-2.30914e-11
-2.54929e-11
-2.55907e-11
-2.33583e-11
-1.76503e-11
-1.03917e-11
)
;

boundaryField
{
    inlet
    {
        type            calculated;
        value           uniform 0;
    }
    outlet
    {
        type            calculated;
        value           nonuniform List<scalar> 
81
(
-1.43133e-10
-3.63551e-10
-5.19936e-10
-6.13518e-10
-6.44678e-10
-6.13517e-10
-5.19937e-10
-3.63554e-10
-1.43134e-10
-1.22761e-10
-3.11975e-10
-4.46527e-10
-5.27256e-10
-5.54166e-10
-5.27257e-10
-4.46527e-10
-3.11975e-10
-1.22762e-10
-9.18583e-11
-2.33428e-10
-3.34102e-10
-3.94502e-10
-4.14635e-10
-3.94502e-10
-3.34102e-10
-2.33428e-10
-9.18584e-11
-4.72555e-11
-1.20152e-10
-1.72014e-10
-2.03128e-10
-2.13498e-10
-2.03128e-10
-1.72015e-10
-1.20153e-10
-4.72556e-11
-1.34675e-13
-4.12393e-13
-6.60869e-13
-8.05622e-13
-8.53069e-13
-8.05618e-13
-6.60859e-13
-4.12403e-13
-1.34671e-13
4.73903e-11
1.20362e-10
1.7222e-10
2.03339e-10
2.13713e-10
2.03339e-10
1.7222e-10
1.20363e-10
4.73903e-11
9.17738e-11
2.32977e-10
3.33278e-10
3.93464e-10
4.13527e-10
3.93464e-10
3.33278e-10
2.32977e-10
9.17737e-11
1.23308e-10
3.13117e-10
4.48001e-10
5.28941e-10
5.55922e-10
5.28941e-10
4.48001e-10
3.13117e-10
1.23308e-10
1.4321e-10
3.63374e-10
5.19422e-10
6.12815e-10
6.43914e-10
6.12813e-10
5.19422e-10
3.63377e-10
1.43211e-10
)
;
    }
    lowerWall
    {
        type            calculated;
        value           uniform 0;
    }
    upperWall
    {
        type            calculated;
        value           uniform 0;
    }
}


// ************************************************************************* //
