/*--------------------------------*- C++ -*----------------------------------*\
  =========                 |
  \\      /  F ield         | OpenFOAM: The Open Source CFD Toolbox
   \\    /   O peration     | Website:  https://openfoam.org
    \\  /    A nd           | Version:  11
     \\/     M anipulation  |
\*---------------------------------------------------------------------------*/
FoamFile
{
    format      ascii;
    class       volScalarField::Internal;
    location    "61";
    object      tmp<kEpsilon:G>;
}
// * * * * * * * * * * * * * * * * * * * * * * * * * * * * * * * * * * * * * //

dimensions      [0 2 -3 0 0 0 0];

value           nonuniform List<scalar> 
729
(
0
0
0
0
0
0
0
0
0
0
0
0
0
0
0
0
0
0
0
0
0
0
0
0
0
0
0
0
0
0
0
0
0
0
0
0
0
0
0
0
0
0
0
0
0
0
0
0
0
0
0
0
0
0
0
0
0
0
0
0
0
0
0
0
0
0
0
0
0
0
0
0
0
0
0
0
0
0
0
0
0
0
9.66912
19.2428
19.5081
22.5672
19.8154
22.2189
9.84758
0
0
0.000455367
0.000377483
0.000327481
0.000273206
0.000551923
0.00262914
0.00317232
0
0
2.56317e-09
5.01174e-11
5.37994e-11
4.49932e-11
3.43608e-08
1.41353e-06
3.12562e-07
0
0
1.06786e-09
6.57305e-13
5.04694e-13
4.38482e-13
5.06796e-13
4.32611e-12
1.5858e-08
0
0
5.18394e-10
3.46886e-13
3.29263e-13
2.897e-13
3.35906e-13
1.42565e-12
8.04603e-09
0
0
3.21163e-10
1.8345e-13
1.33709e-13
1.16214e-13
1.32979e-13
3.31592e-13
2.219e-09
0
0
1.58153e-10
9.0594e-14
6.94466e-14
5.96878e-14
7.00125e-14
1.28052e-13
8.98707e-10
0
0
1.12467e-10
5.04365e-14
2.42605e-14
1.56475e-14
2.425e-14
5.85109e-14
3.28586e-10
0
0
8.29185e-11
3.28036e-14
9.85955e-15
2.28141e-15
9.64331e-15
3.22884e-14
1.31292e-10
0
0
25.269
45.4704
46.5169
52.9549
47.3357
52.6973
26.2995
0
0
0.000950318
0.000805267
0.000699392
0.000584511
0.00112418
0.00529818
0.00669558
0
0
7.68315e-09
1.54481e-10
1.66658e-10
1.40419e-10
7.92841e-08
2.70025e-06
1.13714e-06
0
0
3.18866e-09
1.23974e-12
9.50475e-13
8.26366e-13
9.64348e-13
9.79717e-12
5.43846e-08
0
0
1.55008e-09
6.54774e-13
6.19908e-13
5.45987e-13
6.3313e-13
2.97778e-12
2.77966e-08
0
0
9.59402e-10
3.4632e-13
2.51955e-13
2.19098e-13
2.50909e-13
6.57745e-13
7.45405e-09
0
0
4.7243e-10
1.71073e-13
1.30846e-13
1.12551e-13
1.32021e-13
2.50178e-13
3.00925e-09
0
0
3.35907e-10
9.52699e-14
4.57671e-14
2.9577e-14
4.58155e-14
1.12066e-13
1.0628e-09
0
0
2.47766e-10
6.20329e-14
1.86148e-14
4.33709e-15
1.8209e-14
6.12434e-14
4.10088e-10
0
0
25.7685
35.774
36.5051
39.7333
36.9797
39.8112
26.3596
0
0
0.000469358
0.000414395
0.000362133
0.00030708
0.000563918
0.0026426
0.00332618
0
0
3.50487e-09
6.67915e-11
7.21607e-11
6.11543e-11
3.55556e-08
1.18898e-06
6.29467e-07
0
0
1.45763e-09
4.75507e-13
3.64913e-13
3.17122e-13
3.72535e-13
4.16487e-12
2.88523e-08
0
0
7.07747e-10
2.5115e-13
2.37581e-13
2.09375e-13
2.42782e-13
1.21391e-12
1.47929e-08
0
0
4.37757e-10
1.32944e-13
9.68708e-14
8.42677e-14
9.657e-14
2.60034e-13
3.86016e-09
0
0
2.15525e-10
6.5688e-14
5.02843e-14
4.33021e-14
5.07629e-14
9.79883e-14
1.5491e-09
0
0
1.53112e-10
3.66107e-14
1.77089e-14
1.15283e-14
1.77459e-14
4.34159e-14
5.28845e-10
0
0
1.12937e-10
2.38166e-14
7.20438e-15
1.74647e-15
7.04772e-15
2.35549e-14
1.96173e-10
0
0
20.9355
20.2373
20.3151
20.2111
20.3184
20.3111
20.625
0
0
1.88732e-06
1.73835e-05
1.91259e-05
2.39723e-05
3.00064e-05
0.000101022
8.7102e-06
0
0
1.20338e-11
1.68569e-13
1.74322e-13
1.40673e-13
9.02693e-11
4.11769e-09
1.69081e-09
0
0
1.1988e-11
2.37391e-15
2.37707e-15
1.5684e-15
2.62292e-15
2.49001e-14
2.94225e-10
0
0
3.52463e-12
1.0761e-15
9.42841e-16
8.13419e-16
9.26392e-16
5.34747e-15
7.57716e-11
0
0
2.02248e-12
7.32092e-16
7.90563e-16
6.8448e-16
8.09983e-16
1.50188e-15
1.95974e-11
0
0
9.13906e-13
3.67631e-16
3.81849e-16
3.70951e-16
3.79782e-16
5.57947e-16
6.9816e-12
0
0
4.32585e-13
2.40228e-16
3.04806e-16
3.08177e-16
3.07598e-16
2.90296e-16
1.57602e-12
0
0
1.39997e-13
9.29627e-17
1.20416e-16
1.24753e-16
1.1727e-16
9.30171e-17
2.49689e-13
0
0
25.7668
35.777
36.5069
39.7361
36.9804
39.815
26.3606
0
0
0.000465465
0.000413987
0.000361762
0.00030674
0.000561125
0.00263783
0.00328345
0
0
2.87578e-09
5.47234e-11
5.91094e-11
5.00973e-11
3.13448e-08
1.11061e-06
5.40117e-07
0
0
1.19594e-09
3.99522e-13
3.06973e-13
2.66812e-13
3.1307e-13
3.42506e-12
2.4553e-08
0
0
5.8084e-10
2.11057e-13
1.99899e-13
1.76142e-13
2.04231e-13
1.00759e-12
1.26301e-08
0
0
3.59273e-10
1.11738e-13
8.15285e-14
7.09198e-14
8.12759e-14
2.17197e-13
3.27523e-09
0
0
1.76905e-10
5.52117e-14
4.23176e-14
3.64418e-14
4.27262e-14
8.2061e-14
1.31664e-09
0
0
1.25699e-10
3.07765e-14
1.49034e-14
9.7023e-15
1.4935e-14
3.64532e-14
4.46268e-10
0
0
9.27789e-11
2.002e-14
6.06313e-15
1.46995e-15
5.93182e-15
1.98044e-14
1.64792e-10
0
0
25.2664
45.4778
46.5213
52.9614
47.3375
52.7052
26.3008
0
0
0.000933585
0.000803578
0.000697874
0.000583145
0.00111152
0.00527572
0.00649577
0
0
4.9985e-09
9.84587e-11
1.06153e-10
8.94261e-11
5.87883e-08
2.29566e-06
8.03944e-07
0
0
2.07567e-09
8.5001e-13
6.53198e-13
5.6803e-13
6.61452e-13
6.39161e-12
3.79165e-08
0
0
1.00948e-09
4.49077e-13
4.26163e-13
3.75249e-13
4.35154e-13
1.98393e-12
1.95158e-08
0
0
6.24879e-10
2.37583e-13
1.73284e-13
1.50678e-13
1.72567e-13
4.45123e-13
5.16901e-09
0
0
3.07743e-10
1.1736e-13
8.99777e-14
7.7398e-14
9.08036e-14
1.70238e-13
2.09421e-09
0
0
2.18888e-10
6.53743e-14
3.14743e-14
2.03418e-14
3.15093e-14
7.6675e-14
7.29736e-10
0
0
1.6165e-10
4.25596e-14
1.28009e-14
2.98296e-15
1.25242e-14
4.20276e-14
2.79372e-10
0
0
9.66791
19.2467
19.5102
22.5703
19.8163
22.2224
9.84843
0
0
0.000443306
0.00037626
0.000326389
0.000272228
0.000541576
0.00260968
0.00300929
0
0
1.43303e-09
2.76863e-11
2.96748e-11
2.47732e-11
2.16408e-08
1.0939e-06
1.84666e-07
0
0
5.99017e-10
4.11388e-13
3.16759e-13
2.75271e-13
3.1752e-13
2.52986e-12
9.41814e-09
0
0
2.9085e-10
2.17197e-13
2.06734e-13
1.81863e-13
2.10893e-13
8.56284e-13
4.8093e-09
0
0
1.80207e-10
1.14896e-13
8.39887e-14
7.29942e-14
8.35341e-14
2.04005e-13
1.31463e-09
0
0
8.8749e-11
5.67381e-14
4.36168e-14
3.74884e-14
4.39816e-14
7.93707e-14
5.34712e-10
0
0
6.31283e-11
3.15967e-14
1.52385e-14
9.8294e-15
1.5233e-14
3.65112e-14
1.93963e-10
0
0
4.65794e-11
2.05407e-14
6.19182e-15
1.43315e-15
6.05808e-15
2.02234e-14
7.74068e-11
0
0
0
0
0
0
0
0
0
0
0
0
0
0
0
0
0
0
0
0
0
0
0
0
0
0
0
0
0
0
0
0
0
0
0
0
0
0
0
0
0
0
0
0
0
0
0
0
0
0
0
0
0
0
0
0
0
0
0
0
0
0
0
0
0
0
0
0
0
0
0
0
0
0
0
0
0
0
0
0
0
0
)
;


// ************************************************************************* //
