/*--------------------------------*- C++ -*----------------------------------*\
  =========                 |
  \\      /  F ield         | OpenFOAM: The Open Source CFD Toolbox
   \\    /   O peration     | Website:  https://openfoam.org
    \\  /    A nd           | Version:  11
     \\/     M anipulation  |
\*---------------------------------------------------------------------------*/
FoamFile
{
    format      ascii;
    class       volVectorField;
    location    "61";
    object      U;
}
// * * * * * * * * * * * * * * * * * * * * * * * * * * * * * * * * * * * * * //

dimensions      [0 1 -1 0 0 0 0];

internalField   nonuniform List<vector> 
729
(
(0.20126 -0.151798 0.0373626)
(0.169266 -0.0445529 0.0107805)
(0.257139 -0.0304563 0.00740367)
(0.25777 -0.0106641 0.002568)
(0.278842 -0.00132712 0.000317119)
(0.25899 0.00282632 -0.000640758)
(0.271513 0.0284657 -0.00692917)
(0.168014 0.0320071 -0.00764769)
(0.239558 0.173199 -0.042471)
(-0.0363266 -0.177738 -0.000112704)
(-0.0568642 -0.0557644 -6.16664e-05)
(-0.056746 -0.0413892 -2.16669e-05)
(-0.0635486 -0.014383 -1.57126e-05)
(-0.0592303 -0.0015172 2.4049e-07)
(-0.0644413 0.00803156 4.70345e-06)
(-0.0663505 0.03914 2.8996e-05)
(-0.0560001 0.0530241 3.34078e-05)
(-0.0638814 0.197183 8.40788e-05)
(-0.0356819 -0.0595071 0.000195047)
(-0.0547355 -0.03766 5.38568e-06)
(-0.0511238 -0.027838 3.55577e-05)
(-0.05861 -0.0119995 7.72646e-07)
(-0.0527726 -0.000342453 -1.08681e-06)
(-0.0599604 0.0118768 4.18891e-06)
(-0.0547207 0.0272526 -3.98548e-05)
(-0.0591642 0.0402056 -4.81276e-06)
(-0.040775 0.0516035 -0.00023522)
(-0.0118443 -0.0641381 -3.38651e-06)
(-0.0239316 -0.0386026 -2.40457e-05)
(-0.0305279 -0.0292872 -1.13372e-05)
(-0.0360277 -0.0124051 -7.79594e-06)
(-0.0355608 -0.000300983 6.01153e-07)
(-0.0359735 0.0113461 5.41676e-06)
(-0.0309602 0.029474 1.50315e-05)
(-0.0229729 0.0396509 2.22503e-05)
(-0.0100747 0.066508 2.01943e-05)
(-0.0100642 -0.0315035 5.12289e-05)
(-0.0198254 -0.0241969 6.82598e-06)
(-0.0249236 -0.0181827 1.2023e-05)
(-0.0296501 -0.00864097 1.49408e-06)
(-0.0289782 -0.000191712 -3.92232e-07)
(-0.0299614 0.00853368 -9.60885e-07)
(-0.0255945 0.0177643 -1.36623e-05)
(-0.0203838 0.0244871 -8.17887e-06)
(-0.0102222 0.0302113 -5.65719e-05)
(-0.00450229 -0.0289404 2.97642e-06)
(-0.0105644 -0.0221707 -7.92576e-06)
(-0.014975 -0.0167444 -4.11905e-06)
(-0.0180384 -0.00797914 -2.86324e-06)
(-0.0183875 -6.62987e-05 3.20299e-07)
(-0.0180426 0.00779902 2.53042e-06)
(-0.0150598 0.0168361 5.31864e-06)
(-0.0104759 0.022527 8.07148e-06)
(-0.00420063 0.0294364 1.92231e-07)
(-0.00325968 -0.0184976 1.5389e-05)
(-0.00759075 -0.0154493 3.13268e-06)
(-0.0107285 -0.0115958 3.83798e-06)
(-0.0129744 -0.00584334 8.45126e-07)
(-0.0131905 -8.0454e-05 -1.92291e-07)
(-0.0130585 0.00578753 -9.42208e-07)
(-0.0108859 0.0114376 -4.40507e-06)
(-0.00772088 0.015472 -3.7116e-06)
(-0.00327271 0.0182448 -1.65378e-05)
(-0.00143165 -0.0166534 9.08453e-07)
(-0.0036369 -0.0139865 -2.69626e-06)
(-0.00536781 -0.0104947 -1.61053e-06)
(-0.00652252 -0.00531232 -1.01192e-06)
(-0.00675781 -2.29049e-05 1.30717e-07)
(-0.00652896 0.00530045 1.04543e-06)
(-0.00538742 0.0105052 2.01385e-06)
(-0.0036349 0.0140918 2.91384e-06)
(-0.00137636 0.0167482 -1.59295e-07)
(-0.000577832 -0.0141076 4.04295e-06)
(-0.00141868 -0.0121106 1.72489e-06)
(-0.00206425 -0.009062 1.50909e-06)
(-0.00251119 -0.00466898 5.60057e-07)
(-0.00257965 -2.39239e-05 -8.39734e-08)
(-0.00253089 0.0046652 -6.97107e-07)
(-0.00209723 0.00902493 -1.74315e-06)
(-0.00144792 0.0121359 -1.97638e-06)
(-0.000587635 0.0140733 -4.43761e-06)
(0.507248 -0.391545 0.00178073)
(0.426204 -0.11624 0.00240652)
(0.645237 -0.0782345 0.00158177)
(0.649471 -0.0278235 0.00051404)
(0.702123 -0.00355296 6.58076e-05)
(0.653557 0.00704664 -5.55137e-05)
(0.687352 0.0723925 -0.00145725)
(0.429454 0.0811494 -0.00168466)
(0.62278 0.443355 -0.00192933)
(-0.0935728 -0.451375 -0.000650536)
(-0.145591 -0.141877 -0.000126117)
(-0.145283 -0.105302 -4.77511e-05)
(-0.162412 -0.0365555 -3.04e-05)
(-0.151333 -0.00383276 3.50985e-07)
(-0.164939 0.0206951 7.20083e-06)
(-0.171303 0.0997194 5.94061e-05)
(-0.146404 0.136802 6.61257e-05)
(-0.173767 0.502787 0.000864218)
(-0.0910441 -0.151758 0.000199191)
(-0.139735 -0.0961907 8.16058e-06)
(-0.130628 -0.07106 6.78905e-05)
(-0.149715 -0.0305971 8.51724e-07)
(-0.134901 -0.00081099 -2.57083e-06)
(-0.153293 0.0304368 6.75336e-06)
(-0.140214 0.0697735 -7.77413e-05)
(-0.151496 0.103064 -1.51603e-05)
(-0.10517 0.133393 -0.000245759)
(-0.030239 -0.163683 -6.51128e-05)
(-0.0611439 -0.0985821 -4.70663e-05)
(-0.0780183 -0.074765 -2.22184e-05)
(-0.0920649 -0.0316517 -1.5329e-05)
(-0.090886 -0.000732542 9.19843e-07)
(-0.0919524 0.0290624 1.03061e-05)
(-0.0791673 0.0753379 2.8487e-05)
(-0.0588378 0.101447 4.22359e-05)
(-0.0258733 0.169617 8.44254e-05)
(-0.0257007 -0.0804563 5.03589e-05)
(-0.0506479 -0.0618176 1.30149e-05)
(-0.0636871 -0.0464387 2.32006e-05)
(-0.0757606 -0.0220577 2.77763e-06)
(-0.074059 -0.000464615 -8.23448e-07)
(-0.07656 0.0218401 -1.91674e-06)
(-0.0653993 0.045447 -2.65933e-05)
(-0.0520593 0.0626664 -1.60426e-05)
(-0.0260717 0.0773516 -5.96293e-05)
(-0.0115003 -0.0739128 -1.6342e-05)
(-0.0269942 -0.0566381 -1.5611e-05)
(-0.0382677 -0.0427694 -8.13097e-06)
(-0.0460963 -0.0203749 -5.68188e-06)
(-0.0469922 -0.000155215 5.09811e-07)
(-0.0461148 0.0199472 4.86653e-06)
(-0.0384978 0.043032 1.01706e-05)
(-0.0267889 0.0575841 1.55549e-05)
(-0.0107488 0.0751812 2.05307e-05)
(-0.00832538 -0.047256 1.4044e-05)
(-0.0193935 -0.0394756 6.0565e-06)
(-0.0274129 -0.0296256 7.40421e-06)
(-0.0331534 -0.0149255 1.64995e-06)
(-0.0337088 -0.000197377 -4.2878e-07)
(-0.0333715 0.0148001 -1.79873e-06)
(-0.0278203 0.0292428 -8.60041e-06)
(-0.0197294 0.0395604 -7.12692e-06)
(-0.00835986 0.0466395 -1.61107e-05)
(-0.00365603 -0.0425454 -5.25573e-06)
(-0.00929048 -0.0357385 -5.30321e-06)
(-0.013714 -0.0268147 -3.20363e-06)
(-0.0166662 -0.0135721 -2.02081e-06)
(-0.01727 -5.44775e-05 1.65178e-07)
(-0.0166878 0.0135485 1.98681e-06)
(-0.0137732 0.0268489 3.81661e-06)
(-0.00929465 0.0360156 5.65534e-06)
(-0.00351957 0.0427902 6.32819e-06)
(-0.0014762 -0.0360457 5.05792e-06)
(-0.0036254 -0.0309485 3.35324e-06)
(-0.00527534 -0.0231571 2.93723e-06)
(-0.00641812 -0.0119306 1.07783e-06)
(-0.00659344 -5.94749e-05 -1.70736e-07)
(-0.00646904 0.0119235 -1.37391e-06)
(-0.00536109 0.0230652 -3.42335e-06)
(-0.0037016 0.0310167 -3.88853e-06)
(-0.00150214 0.0359615 -5.77344e-06)
(0.610185 -0.468399 -0.00417068)
(0.605223 -0.163681 -0.000459508)
(0.914898 -0.109764 -0.000328962)
(0.923426 -0.0394314 -0.00016248)
(0.99784 -0.00512866 -1.85658e-05)
(0.930159 0.00966459 0.000140153)
(0.979797 0.100739 0.000344085)
(0.616091 0.112216 0.000331669)
(0.754235 0.527824 0.00460807)
(-0.134707 -0.644525 -0.000763811)
(-0.209165 -0.202984 -0.000148131)
(-0.208723 -0.150654 -5.78428e-05)
(-0.233046 -0.0522597 -3.48637e-05)
(-0.21711 -0.00545571 3.47383e-07)
(-0.236807 0.029869 8.88943e-06)
(-0.246789 0.142811 7.12669e-05)
(-0.212433 0.19764 8.23073e-05)
(-0.25403 0.71578 0.0010412)
(-0.130428 -0.217318 0.000193556)
(-0.200348 -0.13796 8.45952e-06)
(-0.187407 -0.101874 7.53468e-05)
(-0.214742 -0.0438308 7.98861e-07)
(-0.193599 -0.00109854 -3.04719e-06)
(-0.220005 0.0437582 7.05339e-06)
(-0.201554 0.100238 -8.68831e-05)
(-0.217679 0.148201 -1.89912e-05)
(-0.151723 0.192864 -0.000238132)
(-0.0433337 -0.234507 -8.16241e-05)
(-0.0877104 -0.141375 -5.27188e-05)
(-0.111939 -0.10719 -2.49228e-05)
(-0.132085 -0.0453621 -1.71669e-05)
(-0.130407 -0.00101334 8.84293e-07)
(-0.131951 0.0417694 1.15369e-05)
(-0.113633 0.10811 3.14951e-05)
(-0.0845482 0.145675 4.68679e-05)
(-0.0372321 0.242903 0.000100101)
(-0.036838 -0.115324 4.87125e-05)
(-0.0726534 -0.0886733 1.44989e-05)
(-0.0913734 -0.0665997 2.58802e-05)
(-0.108687 -0.0316218 3.08578e-06)
(-0.106266 -0.000640858 -9.13447e-07)
(-0.109839 0.0313672 -2.11103e-06)
(-0.0938247 0.0652549 -2.97173e-05)
(-0.0746641 0.0899981 -1.79814e-05)
(-0.037333 0.111069 -5.8787e-05)
(-0.0164865 -0.105953 -2.16753e-05)
(-0.0387265 -0.0812457 -1.75673e-05)
(-0.0549032 -0.0613435 -9.16094e-06)
(-0.0661353 -0.0292179 -6.39533e-06)
(-0.0674247 -0.000208554 4.76282e-07)
(-0.0661712 0.028639 5.4658e-06)
(-0.0552479 0.0617486 1.12315e-05)
(-0.0384537 0.0826408 1.73797e-05)
(-0.0154287 0.107774 2.59017e-05)
(-0.0119347 -0.0677513 1.32819e-05)
(-0.0278203 -0.0566316 6.78166e-06)
(-0.0393275 -0.0424976 8.26906e-06)
(-0.047563 -0.0214068 1.89194e-06)
(-0.0483653 -0.000275507 -4.82355e-07)
(-0.0478797 0.0212435 -1.92297e-06)
(-0.0399152 0.0419689 -9.57494e-06)
(-0.0283058 0.0567803 -7.88627e-06)
(-0.0119828 0.0668966 -1.55249e-05)
(-0.00524068 -0.0610005 -6.96141e-06)
(-0.0133264 -0.0512727 -5.95481e-06)
(-0.0196731 -0.0384689 -3.61872e-06)
(-0.0239106 -0.0194689 -2.2867e-06)
(-0.0247798 -7.53229e-05 1.03673e-07)
(-0.0239474 0.0194436 2.20153e-06)
(-0.0197671 0.038523 4.15775e-06)
(-0.013341 0.051678 6.2627e-06)
(-0.00504976 0.0613523 7.99127e-06)
(-0.00211635 -0.0516849 5.20819e-06)
(-0.00520102 -0.0444037 3.72839e-06)
(-0.0075685 -0.0332245 3.26181e-06)
(-0.00920808 -0.0171168 1.19692e-06)
(-0.00946046 -8.43234e-05 -1.94311e-07)
(-0.00928246 0.0171092 -1.55404e-06)
(-0.00769307 0.0330952 -3.80897e-06)
(-0.00531173 0.0445051 -4.33221e-06)
(-0.00215364 0.0515671 -6.00864e-06)
(0.648597 -0.496861 -0.00137245)
(0.710056 -0.190991 -0.000234601)
(1.07281 -0.12782 -0.000245102)
(1.08465 -0.0461972 -0.000117474)
(1.17173 -0.00607893 -1.35665e-05)
(1.09322 0.0110786 9.29719e-05)
(1.15251 0.116647 0.000254363)
(0.727477 0.129645 8.227e-05)
(0.804107 0.558712 0.0014607)
(-0.159453 -0.75927 -0.000564152)
(-0.247401 -0.239481 -9.68482e-05)
(-0.246883 -0.177739 -3.81631e-05)
(-0.275436 -0.0616246 -2.23794e-05)
(-0.256573 -0.00641517 1.01916e-07)
(-0.279948 0.0354358 6.45229e-06)
(-0.292191 0.168598 4.63644e-05)
(-0.252565 0.234631 5.66299e-05)
(-0.302026 0.839793 0.000742131)
(-0.153961 -0.256456 0.000120744)
(-0.236667 -0.163004 5.38471e-06)
(-0.22147 -0.120334 4.77598e-05)
(-0.253736 -0.0517467 5.79533e-07)
(-0.228833 -0.00124837 -1.94839e-06)
(-0.260055 0.0517817 4.08491e-06)
(-0.238488 0.118562 -5.51355e-05)
(-0.257501 0.1754 -1.31752e-05)
(-0.179861 0.229003 -0.00014264)
(-0.0511614 -0.276824 -5.23487e-05)
(-0.103644 -0.167026 -3.39794e-05)
(-0.132292 -0.126616 -1.59785e-05)
(-0.156094 -0.0535705 -1.1037e-05)
(-0.154122 -0.00116873 3.67696e-07)
(-0.155957 0.049418 7.76698e-06)
(-0.134329 0.12778 1.96911e-05)
(-0.100019 0.172254 3.01055e-05)
(-0.0440757 0.28666 6.29379e-05)
(-0.0434988 -0.136177 3.06676e-05)
(-0.0858516 -0.104779 9.29071e-06)
(-0.107984 -0.0786861 1.64845e-05)
(-0.128439 -0.0373512 2.00269e-06)
(-0.125593 -0.000737668 -4.45982e-07)
(-0.129803 0.0370944 -1.31344e-06)
(-0.110877 0.0771563 -1.8804e-05)
(-0.0882165 0.106427 -1.15222e-05)
(-0.0440551 0.131301 -3.67427e-05)
(-0.0194693 -0.125117 -1.40083e-05)
(-0.0457643 -0.0960038 -1.1396e-05)
(-0.0648836 -0.0724805 -5.92309e-06)
(-0.0781577 -0.0345181 -4.13314e-06)
(-0.0796845 -0.000235588 1.38742e-07)
(-0.0782071 0.0338604 3.63164e-06)
(-0.065302 0.0729811 6.88187e-06)
(-0.0454586 0.0976814 1.11371e-05)
(-0.0182347 0.127269 1.63529e-05)
(-0.0140937 -0.0800139 8.19232e-06)
(-0.0328746 -0.0669226 4.22001e-06)
(-0.0464748 -0.0502178 5.18278e-06)
(-0.0562073 -0.0252929 1.24598e-06)
(-0.0571593 -0.000319638 -2.32832e-07)
(-0.0565844 0.0251126 -1.02647e-06)
(-0.0471721 0.0496087 -5.82642e-06)
(-0.0334512 0.067119 -4.66407e-06)
(-0.0141497 0.0790265 -9.38965e-06)
(-0.00618839 -0.0720433 -4.32694e-06)
(-0.0157467 -0.0605917 -3.67753e-06)
(-0.0232472 -0.0454599 -2.26673e-06)
(-0.0282565 -0.0230055 -1.42263e-06)
(-0.0292859 -8.67307e-05 -1.05723e-07)
(-0.0283043 0.0229821 1.3277e-06)
(-0.0233654 0.0455279 2.26296e-06)
(-0.0157706 0.0610767 3.72963e-06)
(-0.00596654 0.0724596 4.679e-06)
(-0.00249932 -0.0610437 3.26666e-06)
(-0.00614619 -0.0524767 2.36693e-06)
(-0.00894422 -0.0392646 2.04578e-06)
(-0.0108819 -0.0202282 7.70702e-07)
(-0.0111808 -9.87997e-05 -1.18631e-07)
(-0.0109707 0.0202212 -9.95025e-07)
(-0.00909259 0.0391139 -2.40655e-06)
(-0.00627811 0.0525991 -2.75177e-06)
(-0.00254355 0.060907 -3.78807e-06)
(0.66063 -0.505847 5.51044e-07)
(0.744444 -0.199965 4.5393e-07)
(1.12464 -0.13373 3.56187e-07)
(1.13771 -0.0484314 1.84946e-07)
(1.22894 -0.00639831 1.01401e-07)
(1.14694 0.0115269 -2.7296e-07)
(1.20946 0.121797 -3.36616e-07)
(0.764385 0.135313 -6.34332e-07)
(0.819889 0.568418 -6.09501e-07)
(-0.167716 -0.797347 -5.59494e-07)
(-0.260164 -0.251618 -7.29573e-07)
(-0.25962 -0.186745 -1.91117e-07)
(-0.289568 -0.0647362 -1.05427e-07)
(-0.269727 -0.00673242 -3.38824e-07)
(-0.294331 0.037303 1.05715e-06)
(-0.307335 0.177183 -2.38535e-07)
(-0.266021 0.247052 8.09973e-07)
(-0.318041 0.880669 4.87077e-07)
(-0.16179 -0.269471 1.17366e-06)
(-0.248765 -0.171348 1.02719e-06)
(-0.232823 -0.126483 7.45211e-07)
(-0.266729 -0.0543809 3.56996e-07)
(-0.24058 -0.00129416 1.60201e-07)
(-0.273409 0.0544618 -4.79196e-07)
(-0.250824 0.124677 -3.40245e-07)
(-0.270796 0.184487 -1.06072e-06)
(-0.18928 0.241137 -9.38529e-07)
(-0.0537662 -0.290902 -1.18558e-06)
(-0.108954 -0.175571 -1.36e-06)
(-0.139076 -0.133087 -4.90734e-07)
(-0.164096 -0.0563033 -3.34073e-07)
(-0.162028 -0.00121812 -3.78829e-07)
(-0.16396 0.051972 1.25383e-06)
(-0.14123 0.134338 -3.01363e-07)
(-0.105184 0.181122 1.43101e-06)
(-0.0463628 0.301211 6.28185e-07)
(-0.045716 -0.143119 6.29672e-07)
(-0.09025 -0.110147 5.86257e-07)
(-0.113521 -0.0827131 4.33118e-07)
(-0.135022 -0.0392594 2.13966e-07)
(-0.132036 -0.000768305 3.77717e-07)
(-0.136457 0.0390054 -6.07559e-08)
(-0.11656 0.0811265 8.51376e-09)
(-0.092732 0.111909 -5.13899e-07)
(-0.0462902 0.138047 -1.90837e-08)
(-0.0204622 -0.131496 -6.37323e-07)
(-0.0481099 -0.100922 -7.54061e-07)
(-0.0682102 -0.0761915 -3.58188e-07)
(-0.082165 -0.0362839 -2.12959e-07)
(-0.0837712 -0.000243688 -3.79261e-07)
(-0.0822195 0.0356021 5.18773e-07)
(-0.0686541 0.0767258 -4.43054e-07)
(-0.0477947 0.102696 5.07668e-07)
(-0.0191701 0.133759 2.09709e-08)
(-0.0148124 -0.0840965 -8.4803e-08)
(-0.034559 -0.0703525 1.15044e-08)
(-0.048857 -0.0527906 3.19009e-08)
(-0.0590884 -0.0265877 1.60526e-07)
(-0.0600907 -0.000333847 2.60812e-07)
(-0.0594859 0.0264028 3.57331e-07)
(-0.049591 0.0521561 5.46767e-07)
(-0.0351663 0.0705665 5.79619e-07)
(-0.014871 0.0830667 6.61151e-07)
(-0.00650385 -0.0757199 8.1311e-08)
(-0.0165533 -0.0636977 7.27272e-08)
(-0.0244384 -0.0477899 -4.38277e-08)
(-0.029705 -0.0241842 7.19941e-09)
(-0.0307879 -9.03375e-05 -4.31186e-07)
(-0.0297569 0.0241619 -9.66387e-08)
(-0.0245652 0.0478629 -8.12871e-07)
(-0.0165808 0.0642098 -4.27269e-07)
(-0.00627199 0.0761577 -8.11874e-07)
(-0.00262682 -0.0641598 -1.87086e-08)
(-0.00646121 -0.0551676 2.02508e-08)
(-0.00940276 -0.0412779 -2.35046e-08)
(-0.0114398 -0.0212652 2.42791e-08)
(-0.0117542 -0.000103545 4.12221e-08)
(-0.0115335 0.0212586 -4.10996e-08)
(-0.00955914 0.0411202 3.60035e-08)
(-0.00660028 0.0552972 -3.57864e-08)
(-0.00267338 0.0640171 -1.54433e-10)
(0.648597 -0.496861 0.00137328)
(0.710055 -0.190991 0.000235213)
(1.07281 -0.12782 0.000245738)
(1.08465 -0.0461973 0.000117798)
(1.17173 -0.00607911 1.36676e-05)
(1.09322 0.0110792 -9.31331e-05)
(1.15251 0.116647 -0.000255093)
(0.727477 0.129645 -8.32367e-05)
(0.804107 0.558712 -0.00146175)
(-0.159452 -0.759269 0.000563311)
(-0.247401 -0.239481 9.56728e-05)
(-0.246883 -0.177739 3.78945e-05)
(-0.275436 -0.0616245 2.22142e-05)
(-0.256573 -0.00641518 -6.4484e-07)
(-0.279948 0.0354359 -4.75187e-06)
(-0.292191 0.168598 -4.67469e-05)
(-0.252565 0.234631 -5.53439e-05)
(-0.302025 0.839791 -0.000741478)
(-0.153961 -0.256456 -0.000118893)
(-0.236668 -0.163004 -3.9178e-06)
(-0.22147 -0.120334 -4.65134e-05)
(-0.253736 -0.0517467 -2.21541e-08)
(-0.228833 -0.00124837 2.13751e-06)
(-0.260055 0.0517817 -4.55401e-06)
(-0.238488 0.118562 5.43761e-05)
(-0.257501 0.1754 1.16711e-05)
(-0.179861 0.229002 0.000140977)
(-0.0511613 -0.276824 5.05083e-05)
(-0.103644 -0.167026 3.18536e-05)
(-0.132292 -0.126616 1.52255e-05)
(-0.156094 -0.0535705 1.05114e-05)
(-0.154122 -0.00116872 -9.80167e-07)
(-0.155957 0.0494181 -5.78282e-06)
(-0.134329 0.12778 -2.01727e-05)
(-0.100019 0.172254 -2.7877e-05)
(-0.0440756 0.286659 -6.20152e-05)
(-0.0434987 -0.136177 -2.96777e-05)
(-0.0858516 -0.104779 -8.43055e-06)
(-0.107984 -0.0786861 -1.57856e-05)
(-0.128439 -0.0373512 -1.66913e-06)
(-0.125593 -0.000737684 1.0299e-06)
(-0.129803 0.0370943 1.38012e-06)
(-0.110877 0.0771563 1.86564e-05)
(-0.0882165 0.106427 1.07171e-05)
(-0.0440549 0.1313 3.66931e-05)
(-0.0194692 -0.125116 1.30179e-05)
(-0.0457643 -0.0960039 1.02073e-05)
(-0.0648835 -0.0724805 5.36383e-06)
(-0.0781577 -0.0345182 3.80418e-06)
(-0.0796845 -0.000235588 -7.29164e-07)
(-0.0782071 0.0338605 -2.81124e-06)
(-0.065302 0.0729811 -7.57771e-06)
(-0.0454586 0.0976815 -1.03551e-05)
(-0.0182347 0.127269 -1.63235e-05)
(-0.0140937 -0.0800137 -8.30848e-06)
(-0.0328746 -0.0669226 -4.16908e-06)
(-0.0464748 -0.0502177 -5.13295e-06)
(-0.0562072 -0.0252928 -9.3425e-07)
(-0.0571593 -0.000319645 5.73702e-07)
(-0.0565843 0.0251125 1.67168e-06)
(-0.047172 0.0496087 6.56356e-06)
(-0.0334512 0.0671189 5.60095e-06)
(-0.0141496 0.0790262 1.03387e-05)
(-0.00618839 -0.0720431 4.45143e-06)
(-0.0157468 -0.0605917 3.79814e-06)
(-0.0232472 -0.0454599 2.19591e-06)
(-0.0282565 -0.0230055 1.43688e-06)
(-0.0292859 -8.67653e-05 -5.68309e-07)
(-0.0283044 0.0229822 -1.47569e-06)
(-0.0233654 0.0455278 -3.52916e-06)
(-0.0157706 0.0610767 -4.37852e-06)
(-0.00596654 0.0724593 -5.94776e-06)
(-0.00249931 -0.0610436 -3.29577e-06)
(-0.00614618 -0.0524767 -2.3372e-06)
(-0.0089442 -0.0392646 -2.08134e-06)
(-0.0108819 -0.0202282 -7.34621e-07)
(-0.0111808 -9.87976e-05 1.84649e-07)
(-0.0109707 0.0202212 9.31174e-07)
(-0.00909255 0.0391139 2.46273e-06)
(-0.0062781 0.0525991 2.69404e-06)
(-0.00254353 0.0609068 3.78896e-06)
(0.610185 -0.4684 0.00417116)
(0.605223 -0.163682 0.000459501)
(0.914898 -0.109765 0.000329389)
(0.923426 -0.0394317 0.000162677)
(0.99784 -0.00512891 1.8442e-05)
(0.930159 0.00966534 -0.000139543)
(0.979797 0.100739 -0.00034491)
(0.61609 0.112217 -0.000331895)
(0.754236 0.527825 -0.00460878)
(-0.134707 -0.644525 0.000763489)
(-0.209165 -0.202984 0.000147631)
(-0.208723 -0.150654 5.7728e-05)
(-0.233046 -0.0522597 3.4808e-05)
(-0.21711 -0.00545572 -6.33576e-07)
(-0.236808 0.0298691 -8.08111e-06)
(-0.246789 0.142811 -7.14319e-05)
(-0.212433 0.19764 -8.17939e-05)
(-0.25403 0.715781 -0.001041)
(-0.130428 -0.217318 -0.000192851)
(-0.200348 -0.137961 -8.15266e-06)
(-0.187407 -0.101874 -7.46346e-05)
(-0.214742 -0.0438308 -5.66054e-07)
(-0.193599 -0.00109854 2.98839e-06)
(-0.220005 0.0437583 -6.62681e-06)
(-0.201554 0.100238 8.60498e-05)
(-0.217679 0.148201 1.87295e-05)
(-0.151723 0.192864 0.000237218)
(-0.0433337 -0.234507 8.08661e-05)
(-0.0877103 -0.141375 5.1797e-05)
(-0.111939 -0.10719 2.46115e-05)
(-0.132085 -0.0453622 1.69472e-05)
(-0.130407 -0.00101333 -1.2097e-06)
(-0.131951 0.0417696 -1.06144e-05)
(-0.113633 0.10811 -3.17389e-05)
(-0.0845481 0.145675 -4.59197e-05)
(-0.0372322 0.242904 -9.97481e-05)
(-0.036838 -0.115324 -4.8313e-05)
(-0.0726535 -0.0886733 -1.42676e-05)
(-0.0913736 -0.0665997 -2.55372e-05)
(-0.108687 -0.0316218 -2.94581e-06)
(-0.106267 -0.00064089 1.15137e-06)
(-0.109839 0.0313671 2.5029e-06)
(-0.0938247 0.0652548 2.93074e-05)
(-0.0746642 0.089998 1.76361e-05)
(-0.0373329 0.111069 5.87695e-05)
(-0.0164865 -0.105953 2.12507e-05)
(-0.0387265 -0.0812459 1.70215e-05)
(-0.0549032 -0.0613435 8.92303e-06)
(-0.0661353 -0.029218 6.26661e-06)
(-0.0674246 -0.000208555 -7.27529e-07)
(-0.0661711 0.0286391 -5.07866e-06)
(-0.0552478 0.0617486 -1.15563e-05)
(-0.0384537 0.082641 -1.70865e-05)
(-0.0154287 0.107774 -2.5897e-05)
(-0.0119347 -0.0677513 -1.33028e-05)
(-0.0278202 -0.0566315 -6.68478e-06)
(-0.0393275 -0.0424975 -8.24611e-06)
(-0.0475629 -0.0214068 -1.62058e-06)
(-0.0483653 -0.000275522 4.79131e-07)
(-0.0478796 0.0212434 2.39218e-06)
(-0.0399151 0.0419688 9.63333e-06)
(-0.0283058 0.0567801 8.35466e-06)
(-0.0119827 0.0668965 1.57598e-05)
(-0.00524071 -0.0610006 6.99307e-06)
(-0.0133265 -0.0512727 6.00909e-06)
(-0.0196731 -0.0384689 3.5767e-06)
(-0.0239107 -0.0194688 2.29694e-06)
(-0.0247798 -7.53903e-05 -4.02487e-07)
(-0.0239474 0.0194437 -2.24904e-06)
(-0.0197672 0.0385229 -4.69965e-06)
(-0.013341 0.051678 -6.49481e-06)
(-0.0050498 0.0613523 -8.52613e-06)
(-0.00211634 -0.051685 -5.22028e-06)
(-0.00520099 -0.0444038 -3.71806e-06)
(-0.00756846 -0.0332245 -3.27244e-06)
(-0.00920802 -0.0171168 -1.18522e-06)
(-0.00946041 -8.43208e-05 2.2862e-07)
(-0.00928239 0.0171092 1.52496e-06)
(-0.007693 0.0330952 3.83383e-06)
(-0.00531171 0.0445051 4.30183e-06)
(-0.00215362 0.0515671 6.01167e-06)
(0.507253 -0.391549 -0.00178062)
(0.426204 -0.11624 -0.00240694)
(0.645237 -0.0782349 -0.0015816)
(0.649471 -0.0278237 -0.000513984)
(0.702123 -0.00355315 -6.60233e-05)
(0.653558 0.00704717 5.63252e-05)
(0.687352 0.0723926 0.00145664)
(0.429454 0.0811502 0.00168505)
(0.622784 0.443358 0.00192913)
(-0.0935735 -0.451379 0.000650238)
(-0.145591 -0.141877 0.000126163)
(-0.145283 -0.105302 4.77369e-05)
(-0.162412 -0.0365555 3.04044e-05)
(-0.151333 -0.00383277 -4.51136e-07)
(-0.16494 0.0206952 -6.98437e-06)
(-0.171303 0.0997193 -5.94462e-05)
(-0.146404 0.136802 -6.62652e-05)
(-0.173768 0.502791 -0.000863656)
(-0.0910447 -0.15176 -0.000198966)
(-0.139736 -0.0961908 -8.44144e-06)
(-0.130628 -0.0710601 -6.76021e-05)
(-0.149715 -0.0305972 -7.99372e-07)
(-0.134901 -0.000810998 2.40155e-06)
(-0.153293 0.0304369 -6.03013e-06)
(-0.140214 0.0697734 7.70674e-05)
(-0.151496 0.103064 1.54604e-05)
(-0.10517 0.133394 0.000245135)
(-0.0302392 -0.163684 6.4809e-05)
(-0.0611438 -0.0985823 4.69078e-05)
(-0.0780181 -0.0747649 2.21903e-05)
(-0.0920648 -0.0316518 1.5277e-05)
(-0.0908858 -0.000732543 -1.02685e-06)
(-0.0919523 0.0290627 -1.00826e-05)
(-0.0791671 0.0753378 -2.85563e-05)
(-0.0588378 0.101447 -4.20392e-05)
(-0.0258736 0.169619 -8.41602e-05)
(-0.0257008 -0.0804568 -5.02845e-05)
(-0.0506479 -0.0618175 -1.31102e-05)
(-0.0636872 -0.0464387 -2.30941e-05)
(-0.0757605 -0.0220576 -2.74797e-06)
(-0.0740592 -0.000464653 8.39342e-07)
(-0.0765599 0.02184 2.35704e-06)
(-0.0653992 0.0454469 2.61199e-05)
(-0.0520594 0.0626662 1.59306e-05)
(-0.0260717 0.0773521 5.9545e-05)
(-0.0115003 -0.0739136 1.62265e-05)
(-0.0269942 -0.0566384 1.54765e-05)
(-0.0382676 -0.0427695 8.08574e-06)
(-0.0460962 -0.020375 5.66278e-06)
(-0.0469921 -0.000155214 -5.34968e-07)
(-0.0461148 0.0199474 -4.7689e-06)
(-0.0384977 0.043032 -1.02024e-05)
(-0.0267889 0.0575843 -1.55107e-05)
(-0.010749 0.0751819 -2.0449e-05)
(-0.00832544 -0.0472563 -1.40295e-05)
(-0.0193935 -0.0394755 -5.98334e-06)
(-0.0274129 -0.0296256 -7.41362e-06)
(-0.0331533 -0.0149255 -1.47679e-06)
(-0.0337087 -0.000197394 2.59342e-07)
(-0.0333713 0.0148001 2.07364e-06)
(-0.0278202 0.0292427 8.31792e-06)
(-0.0197294 0.0395602 7.2666e-06)
(-0.00835976 0.0466396 1.59503e-05)
(-0.00365608 -0.0425457 5.24488e-06)
(-0.00929053 -0.0357385 5.33144e-06)
(-0.0137141 -0.0268147 3.19593e-06)
(-0.0166663 -0.013572 2.03872e-06)
(-0.0172701 -5.45587e-05 -2.12876e-07)
(-0.0166879 0.0135485 -1.98188e-06)
(-0.0137733 0.0268488 -3.88369e-06)
(-0.00929469 0.0360156 -5.63823e-06)
(-0.00351962 0.0427904 -6.38184e-06)
(-0.0014762 -0.036046 -5.05943e-06)
(-0.00362536 -0.0309485 -3.35354e-06)
(-0.0052753 -0.0231572 -2.93675e-06)
(-0.00641805 -0.0119306 -1.07703e-06)
(-0.00659339 -5.9475e-05 1.72276e-07)
(-0.00646896 0.0119235 1.38149e-06)
(-0.00536102 0.0230652 3.41847e-06)
(-0.00370158 0.0310167 3.88296e-06)
(-0.00150212 0.0359618 5.77759e-06)
(0.201262 -0.151799 -0.0373631)
(0.169266 -0.0445531 -0.0107807)
(0.257139 -0.0304565 -0.00740362)
(0.25777 -0.0106642 -0.002568)
(0.278842 -0.00132716 -0.000317235)
(0.25899 0.00282639 0.000641273)
(0.271513 0.0284659 0.0069289)
(0.168014 0.0320073 0.00764786)
(0.239559 0.1732 0.0424712)
(-0.0363268 -0.177739 0.000112989)
(-0.0568642 -0.0557644 6.17759e-05)
(-0.056746 -0.0413891 2.17073e-05)
(-0.0635486 -0.0143829 1.57665e-05)
(-0.0592303 -0.0015172 -2.16366e-07)
(-0.0644414 0.0080316 -4.83937e-06)
(-0.0663504 0.03914 -2.89403e-05)
(-0.0560002 0.0530241 -3.35772e-05)
(-0.063882 0.197184 -8.45708e-05)
(-0.035682 -0.0595076 -0.000195418)
(-0.0547357 -0.0376601 -5.82056e-06)
(-0.0511239 -0.027838 -3.55682e-05)
(-0.05861 -0.0119995 -8.79006e-07)
(-0.0527728 -0.000342455 9.76387e-07)
(-0.0599604 0.0118768 -3.67586e-06)
(-0.0547207 0.0272526 3.9602e-05)
(-0.0591643 0.0402057 5.35338e-06)
(-0.040775 0.0516039 0.000235369)
(-0.0118443 -0.0641386 3.7189e-06)
(-0.0239316 -0.0386027 2.42845e-05)
(-0.0305279 -0.0292872 1.14355e-05)
(-0.0360277 -0.0124052 7.88896e-06)
(-0.0355607 -0.000300983 -5.93006e-07)
(-0.0359734 0.0113462 -5.56203e-06)
(-0.0309601 0.029474 -1.50472e-05)
(-0.0229729 0.0396511 -2.25732e-05)
(-0.0100747 0.0665084 -2.04859e-05)
(-0.0100643 -0.0315037 -5.13499e-05)
(-0.0198254 -0.0241969 -7.01145e-06)
(-0.0249237 -0.0181827 -1.20664e-05)
(-0.0296501 -0.00864096 -1.53469e-06)
(-0.0289783 -0.000191727 3.27176e-07)
(-0.0299614 0.00853365 1.20259e-06)
(-0.0255945 0.0177643 1.34672e-05)
(-0.0203839 0.0244871 8.294e-06)
(-0.0102221 0.0302115 5.66094e-05)
(-0.00450231 -0.0289406 -2.86821e-06)
(-0.0105644 -0.0221708 8.01111e-06)
(-0.014975 -0.0167445 4.1773e-06)
(-0.0180384 -0.00797917 2.9136e-06)
(-0.0183875 -6.62993e-05 -2.69311e-07)
(-0.0180425 0.00779909 -2.56919e-06)
(-0.0150598 0.0168361 -5.31238e-06)
(-0.0104758 0.0225271 -8.21134e-06)
(-0.00420068 0.0294366 -2.39072e-07)
(-0.0032597 -0.0184977 -1.52995e-05)
(-0.00759073 -0.0154493 -3.03061e-06)
(-0.0107285 -0.0115957 -3.80583e-06)
(-0.0129744 -0.00584333 -7.55716e-07)
(-0.0131905 -8.04614e-05 6.45734e-08)
(-0.0130585 0.00578749 9.94467e-07)
(-0.0108858 0.0114376 4.14042e-06)
(-0.00772089 0.0154719 3.62753e-06)
(-0.00327267 0.0182448 1.62806e-05)
(-0.00143167 -0.0166535 -9.83009e-07)
(-0.00363693 -0.0139864 2.64186e-06)
(-0.00536784 -0.0104947 1.57639e-06)
(-0.00652255 -0.0053123 9.94733e-07)
(-0.00675784 -2.29372e-05 -8.58427e-08)
(-0.00652899 0.00530047 -9.98328e-07)
(-0.00538745 0.0105051 -1.88996e-06)
(-0.00363492 0.0140919 -2.7832e-06)
(-0.00137638 0.0167483 3.11215e-07)
(-0.000577828 -0.0141077 -4.03787e-06)
(-0.00141866 -0.0121106 -1.73302e-06)
(-0.00206423 -0.009062 -1.49674e-06)
(-0.00251115 -0.00466898 -5.72391e-07)
(-0.00257962 -2.39236e-05 9.47842e-08)
(-0.00253085 0.0046652 6.87176e-07)
(-0.0020972 0.00902492 1.74813e-06)
(-0.00144791 0.0121359 1.96948e-06)
(-0.000587629 0.0140734 4.43944e-06)
)
;

boundaryField
{
    inlet
    {
        type            fixedValue;
        value           uniform (10 0 0);
    }
    outlet
    {
        type            zeroGradient;
    }
    lowerWall
    {
        type            noSlip;
    }
    upperWall
    {
        type            noSlip;
    }
}


// ************************************************************************* //
