/*--------------------------------*- C++ -*----------------------------------*\
| =========                 |                                                 |
| \\      /  F ield         | OpenFOAM: The Open Source CFD Toolbox           |
|  \\    /   O peration     | Version:  2306                                  |
|   \\  /    A nd           | Website:  www.openfoam.com                      |
|    \\/     M anipulation  |                                                 |
\*---------------------------------------------------------------------------*/
FoamFile
{
    version     2.0;
    format      ascii;
    arch        "LSB;label=32;scalar=64";
    class       volScalarField;
    location    "3.2";
    object      p;
}
// * * * * * * * * * * * * * * * * * * * * * * * * * * * * * * * * * * * * * //

dimensions      [0 2 -2 0 0 0 0];

internalField   nonuniform List<scalar> 
288632
(
57.1427
57.1342
57.1447
57.1667
57.1975
57.2353
57.2832
57.3149
57.3989
57.3898
57.5003
57.4918
57.5338
-1.28457
-1.18876
-1.27532
-1.0435
-1.0274
-0.873711
-0.751618
-0.619663
-0.484032
-0.34644
-0.208235
-0.0695597
57.1359
57.1326
57.144
57.166
57.197
57.2348
57.2828
57.3147
57.3987
57.3903
57.4998
57.4912
57.5341
-1.28512
-1.1896
-1.27688
-1.04467
-1.02859
-0.874764
-0.752491
-0.620384
-0.484593
-0.34684
-0.208475
-0.0696405
57.1335
57.1308
57.1425
57.1647
57.1957
57.2336
57.2817
57.3142
57.398
57.3912
57.4994
57.4914
57.5352
-1.28752
-1.19257
-1.2799
-1.04729
-1.03103
-0.876874
-0.754279
-0.621849
-0.485731
-0.347651
-0.20896
-0.0698024
57.1297
57.1282
57.1403
57.1626
57.1937
57.2317
57.2799
57.3131
57.3968
57.392
57.4986
57.4924
57.5365
-1.29172
-1.19689
-1.28438
-1.05119
-1.03466
-0.880008
-0.756946
-0.624033
-0.487428
-0.34886
-0.209684
-0.0700435
57.1261
57.1252
57.1376
57.16
57.1911
57.2293
57.2776
57.3117
57.3952
57.3932
57.4975
57.4935
57.538
-1.29755
-1.20283
-1.29026
-1.05638
-1.03945
-0.884133
-0.76046
-0.626909
-0.489661
-0.350452
-0.210638
-0.0703608
57.1225
57.1219
57.1344
57.1568
57.188
57.2262
57.2747
57.3099
57.3932
57.3942
57.4966
57.495
57.5399
-1.3049
-1.2101
-1.29744
-1.06273
-1.04531
-0.889188
-0.764768
-0.630437
-0.492401
-0.352405
-0.211808
-0.07075
57.1186
57.1182
57.1307
57.1532
57.1843
57.2226
57.2712
57.3077
57.3908
57.3948
57.4963
57.4969
57.5422
-1.31364
-1.21871
-1.30583
-1.0702
-1.05217
-0.895106
-0.769812
-0.634568
-0.49561
-0.354692
-0.213178
-0.0712059
57.1146
57.1142
57.1268
57.1491
57.1801
57.2185
57.2673
57.3051
57.3882
57.3955
57.4963
57.4993
57.545
-1.32363
-1.22843
-1.31529
-1.07866
-1.05993
-0.901801
-0.77552
-0.639243
-0.499243
-0.357282
-0.214729
-0.0717221
57.1104
57.1101
57.1225
57.1447
57.1756
57.214
57.263
57.3022
57.3854
57.3963
57.4967
57.5022
57.5486
-1.33472
-1.23917
-1.3257
-1.08797
-1.06846
-0.909178
-0.78181
-0.644395
-0.503247
-0.360138
-0.21644
-0.0722914
57.1062
57.1057
57.118
57.14
57.1707
57.2091
57.2584
57.2991
57.3824
57.3971
57.4976
57.506
57.553
-1.34671
-1.25074
-1.33689
-1.09801
-1.07766
-0.917126
-0.788589
-0.649951
-0.507565
-0.363217
-0.218285
-0.0729055
57.1018
57.1013
57.1133
57.1351
57.1656
57.204
57.2535
57.2959
57.3795
57.3982
57.4992
57.5106
57.5586
-1.35943
-1.26296
-1.34869
-1.10861
-1.08736
-0.925527
-0.795755
-0.655826
-0.512133
-0.366475
-0.220238
-0.0735554
57.0975
57.0968
57.1086
57.13
57.1603
57.1987
57.2484
57.2925
57.3765
57.3997
57.5016
57.5164
57.5655
-1.37266
-1.27563
-1.36091
-1.11961
-1.09744
-0.934251
-0.803201
-0.661932
-0.516881
-0.369863
-0.222268
-0.0742314
57.0932
57.0923
57.1038
57.125
57.155
57.1933
57.2433
57.2892
57.3737
57.4017
57.5049
57.5235
57.5739
-1.3862
-1.28856
-1.37338
-1.13084
-1.10773
-0.943163
-0.810811
-0.668175
-0.521738
-0.373329
-0.224346
-0.074923
57.089
57.088
57.0991
57.1199
57.1496
57.1879
57.2382
57.2859
57.3711
57.4042
57.5093
57.5321
57.5841
-1.39983
-1.30153
-1.38588
-1.14212
-1.11806
-0.952123
-0.818465
-0.674456
-0.526626
-0.376817
-0.226437
-0.0756195
57.085
57.0838
57.0946
57.1151
57.1444
57.1826
57.2332
57.2828
57.3688
57.4073
57.5149
57.5421
57.596
-1.41334
-1.31434
-1.39822
-1.15327
-1.12827
-0.960987
-0.82604
-0.680675
-0.531467
-0.380273
-0.22851
-0.0763097
57.0813
57.0799
57.0903
57.1104
57.1394
57.1776
57.2285
57.28
57.3669
57.4109
57.5217
57.5535
57.6097
-1.42651
-1.32679
-1.4102
-1.16411
-1.13821
-0.969612
-0.833414
-0.686732
-0.536182
-0.383641
-0.230529
-0.0769824
57.0779
57.0762
57.0863
57.106
57.1347
57.1728
57.224
57.2775
57.3654
57.415
57.5296
57.5661
57.625
-1.43913
-1.33867
-1.42162
-1.17447
-1.14769
-0.977855
-0.840465
-0.692525
-0.540694
-0.386863
-0.232462
-0.0776265
57.0749
57.073
57.0827
57.1019
57.1303
57.1684
57.2199
57.2753
57.3643
57.4195
57.5384
57.5796
57.6416
-1.45099
-1.3498
-1.4323
-1.18417
-1.15658
-0.985582
-0.847076
-0.697959
-0.544928
-0.389887
-0.234277
-0.078231
57.0724
57.0702
57.0795
57.0983
57.1264
57.1644
57.2163
57.2735
57.3636
57.4241
57.5478
57.5937
57.6588
-1.46191
-1.36001
-1.44206
-1.19306
-1.16471
-0.992662
-0.853136
-0.702941
-0.54881
-0.392661
-0.235941
-0.0787856
57.0705
57.0679
57.0767
57.0951
57.1229
57.1609
57.2131
57.272
57.3633
57.4288
57.5572
57.6077
57.6762
-1.47171
-1.36911
-1.45073
-1.20098
-1.17195
-0.998975
-0.85854
-0.707386
-0.552275
-0.395137
-0.237427
-0.0792807
57.0692
57.0661
57.0744
57.0925
57.12
57.1579
57.2104
57.2709
57.3632
57.4332
57.5663
57.6211
57.6928
-1.48026
-1.37701
-1.45819
-1.20783
-1.17819
-1.00442
-0.863198
-0.711218
-0.555262
-0.397272
-0.238708
-0.0797077
57.0686
57.0648
57.0726
57.0903
57.1176
57.1555
57.2083
57.2701
57.3633
57.4371
57.5744
57.633
57.7077
-1.48741
-1.38352
-1.46429
-1.21346
-1.18331
-1.00888
-0.867027
-0.714369
-0.557719
-0.399028
-0.239762
-0.0800588
57.0698
57.0642
57.0713
57.0887
57.1158
57.1537
57.2067
57.2695
57.3635
57.4403
57.5811
57.6429
57.7203
-1.49307
-1.38868
-1.46895
-1.21782
-1.18724
-1.01231
-0.869965
-0.716785
-0.559603
-0.400375
-0.24057
-0.0803277
57.0698
57.0636
57.0704
57.0877
57.1147
57.1525
57.2057
57.2692
57.3638
57.4425
57.5858
57.6502
57.7296
-1.49715
-1.39208
-1.47208
-1.22077
-1.1899
-1.01462
-0.871956
-0.718423
-0.560879
-0.401287
-0.241117
-0.0805097
57.0753
57.0642
57.0701
57.0873
57.1142
57.152
57.2052
57.2691
57.364
57.4439
57.5887
57.6538
57.7355
-1.49956
-1.39446
-1.47362
-1.22239
-1.19127
-1.01578
-0.872979
-0.719257
-0.561528
-0.401751
-0.241394
-0.0806009
57.1347
57.1312
57.1426
57.1646
57.1954
57.2331
57.281
57.3128
57.3966
57.3881
57.4974
57.4894
57.5325
-1.28855
-1.19303
-1.27962
-1.0469
-1.02984
-0.875727
-0.752814
-0.620361
-0.484368
-0.346549
-0.208235
-0.0695376
57.1279
57.1294
57.142
57.164
57.1949
57.2326
57.2806
57.3127
57.3963
57.3897
57.4936
57.4888
57.5331
-1.28919
-1.1939
-1.28121
-1.04809
-1.03105
-0.8768
-0.753701
-0.621093
-0.484938
-0.346955
-0.208479
-0.0696195
57.1257
57.1275
57.1405
57.1626
57.1936
57.2314
57.2795
57.312
57.3955
57.3907
57.4927
57.489
57.5343
-1.29156
-1.19693
-1.28429
-1.05076
-1.03353
-0.878942
-0.755515
-0.622578
-0.48609
-0.347776
-0.208971
-0.0697834
57.122
57.1249
57.1382
57.1605
57.1916
57.2295
57.2777
57.311
57.3942
57.3916
57.4914
57.4897
57.5356
-1.29581
-1.20132
-1.28885
-1.05472
-1.03722
-0.882124
-0.758221
-0.624793
-0.48781
-0.349001
-0.209704
-0.0700275
57.1184
57.1221
57.1354
57.1579
57.1889
57.227
57.2752
57.3094
57.3925
57.3924
57.4904
57.4908
57.5372
-1.30173
-1.20738
-1.29484
-1.06
-1.04209
-0.886313
-0.761785
-0.627709
-0.490073
-0.350614
-0.21067
-0.0703488
57.1146
57.1188
57.1322
57.1547
57.1857
57.2239
57.2722
57.3075
57.3903
57.393
57.4896
57.4921
57.539
-1.30918
-1.21478
-1.30214
-1.06647
-1.04804
-0.891445
-0.766156
-0.631286
-0.492851
-0.352593
-0.211855
-0.070743
57.1108
57.1151
57.1285
57.151
57.182
57.2202
57.2687
57.3051
57.3878
57.3934
57.489
57.4938
57.5412
-1.31804
-1.22354
-1.31068
-1.07406
-1.05501
-0.897455
-0.771275
-0.635475
-0.496103
-0.354911
-0.213243
-0.0712048
57.1067
57.1112
57.1245
57.1468
57.1778
57.216
57.2646
57.3024
57.3849
57.3938
57.4887
57.496
57.5439
-1.32818
-1.23345
-1.32031
-1.08266
-1.0629
-0.904256
-0.777069
-0.640218
-0.499787
-0.357536
-0.214815
-0.0717279
57.1026
57.107
57.1202
57.1424
57.1731
57.2113
57.2602
57.2993
57.3818
57.394
57.4887
57.4986
57.5472
-1.33942
-1.24438
-1.33091
-1.09214
-1.07157
-0.91175
-0.783454
-0.645446
-0.503848
-0.360431
-0.216549
-0.0723049
57.0983
57.1026
57.1157
57.1376
57.1682
57.2064
57.2553
57.2959
57.3786
57.3944
57.4891
57.502
57.5514
-1.35159
-1.25617
-1.3423
-1.10235
-1.08092
-0.919827
-0.790338
-0.651085
-0.508229
-0.363554
-0.21842
-0.0729275
57.0939
57.0981
57.111
57.1326
57.163
57.2011
57.2502
57.2923
57.3752
57.395
57.4901
57.5062
57.5567
-1.36449
-1.26861
-1.35432
-1.11313
-1.09079
-0.928366
-0.797618
-0.65705
-0.512865
-0.36686
-0.220401
-0.0735867
57.0896
57.0936
57.1062
57.1275
57.1576
57.1956
57.2449
57.2886
57.3718
57.3959
57.4917
57.5116
57.5631
-1.37791
-1.28151
-1.36677
-1.12433
-1.10104
-0.937235
-0.805184
-0.663251
-0.517685
-0.370298
-0.222462
-0.0742725
57.0853
57.0891
57.1014
57.1224
57.1521
57.1901
57.2395
57.2849
57.3685
57.3971
57.4942
57.5182
57.5711
-1.39164
-1.29468
-1.37947
-1.13576
-1.11151
-0.946298
-0.812918
-0.669593
-0.522617
-0.373816
-0.22457
-0.0749745
57.0811
57.0847
57.0967
57.1173
57.1467
57.1845
57.2342
57.2812
57.3653
57.3988
57.4976
57.5262
57.5807
-1.40547
-1.30789
-1.3922
-1.14725
-1.12202
-0.955412
-0.820699
-0.675975
-0.527582
-0.377359
-0.226694
-0.0756817
57.0771
57.0805
57.0921
57.1124
57.1414
57.1791
57.2289
57.2777
57.3625
57.4009
57.5022
57.5354
57.5921
-1.41917
-1.32094
-1.40477
-1.1586
-1.13242
-0.964429
-0.828402
-0.682297
-0.532501
-0.38087
-0.228799
-0.0763827
57.0733
57.0766
57.0878
57.1076
57.1363
57.1738
57.2238
57.2744
57.36
57.4035
57.5079
57.546
57.6051
-1.43253
-1.33361
-1.41698
-1.16964
-1.14253
-0.973205
-0.835902
-0.688455
-0.537293
-0.384291
-0.23085
-0.0770661
57.0699
57.0729
57.0838
57.1031
57.1314
57.1688
57.2191
57.2714
57.3579
57.4066
57.5147
57.5578
57.6198
-1.44532
-1.34572
-1.42861
-1.18018
-1.15219
-0.981595
-0.843076
-0.694347
-0.541881
-0.387566
-0.232815
-0.0777205
57.0669
57.0697
57.0801
57.099
57.1269
57.1642
57.2147
57.2687
57.3562
57.41
57.5224
57.5705
57.6357
-1.45734
-1.35704
-1.43949
-1.19006
-1.16124
-0.98946
-0.849803
-0.699874
-0.546185
-0.390641
-0.234659
-0.078335
57.0644
57.0668
57.0768
57.0953
57.1229
57.16
57.2108
57.2664
57.3549
57.4136
57.5306
57.5838
57.6524
-1.46841
-1.36744
-1.44944
-1.19912
-1.16952
-0.996668
-0.85597
-0.704943
-0.550134
-0.393461
-0.236351
-0.0788988
57.0625
57.0645
57.074
57.0921
57.1193
57.1564
57.2073
57.2645
57.354
57.4173
57.539
57.597
57.6692
-1.47835
-1.3767
-1.45827
-1.20719
-1.1769
-1.00309
-0.861471
-0.709466
-0.553659
-0.39598
-0.237862
-0.0794023
57.0612
57.0627
57.0717
57.0894
57.1163
57.1533
57.2044
57.263
57.3535
57.4208
57.5471
57.6097
57.6853
-1.48701
-1.38474
-1.46587
-1.21416
-1.18325
-1.00863
-0.866212
-0.713365
-0.556698
-0.398151
-0.239165
-0.0798366
57.0606
57.0615
57.0699
57.0872
57.1138
57.1507
57.2021
57.2619
57.3532
57.4239
57.5543
57.621
57.6998
-1.49426
-1.39136
-1.47208
-1.21989
-1.18847
-1.01318
-0.87011
-0.716572
-0.559198
-0.399938
-0.240237
-0.0801938
57.0617
57.0609
57.0686
57.0856
57.112
57.1488
57.2003
57.2611
57.3531
57.4265
57.5603
57.6304
57.712
-1.5
-1.39661
-1.47683
-1.22433
-1.19247
-1.01667
-0.873101
-0.719032
-0.561115
-0.401307
-0.241059
-0.0804675
57.0617
57.0603
57.0677
57.0845
57.1108
57.1476
57.1992
57.2605
57.3531
57.4283
57.5643
57.6372
57.721
-1.50413
-1.40007
-1.48002
-1.22734
-1.19518
-1.01903
-0.875128
-0.720698
-0.562413
-0.402236
-0.241616
-0.0806525
57.0671
57.0609
57.0673
57.0841
57.1103
57.147
57.1987
57.2604
57.3532
57.4293
57.5678
57.6395
57.7263
-1.50657
-1.40247
-1.48158
-1.22897
-1.19657
-1.02021
-0.876167
-0.721546
-0.563073
-0.402707
-0.241898
-0.0807453
57.1296
57.1267
57.1383
57.1603
57.1911
57.2286
57.2763
57.3083
57.3916
57.3842
57.4922
57.4852
57.5294
-1.29772
-1.20263
-1.28791
-1.05355
-1.03441
-0.879374
-0.754905
-0.621483
-0.484811
-0.346591
-0.208117
-0.0694446
57.123
57.1248
57.1376
57.1597
57.1905
57.2281
57.2759
57.3081
57.3913
57.3861
57.4878
57.4846
57.5301
-1.29842
-1.20355
-1.28955
-1.05479
-1.03566
-0.880478
-0.755818
-0.622234
-0.485395
-0.347007
-0.208366
-0.0695283
57.1206
57.1231
57.1361
57.1583
57.1891
57.2268
57.2747
57.3074
57.3904
57.387
57.4869
57.4847
57.5314
-1.30087
-1.20669
-1.29274
-1.05754
-1.03822
-0.882683
-0.757682
-0.623759
-0.486578
-0.347849
-0.20887
-0.069696
57.1166
57.1205
57.1339
57.1562
57.1871
57.2249
57.2728
57.3062
57.3889
57.3876
57.4856
57.4852
57.5327
-1.30526
-1.21125
-1.29746
-1.06164
-1.04202
-0.88596
-0.760464
-0.626033
-0.488342
-0.349105
-0.209622
-0.0699461
57.113
57.1176
57.1311
57.1535
57.1844
57.2222
57.2702
57.3045
57.3869
57.388
57.4843
57.486
57.534
-1.31137
-1.21753
-1.30365
-1.06709
-1.04704
-0.890274
-0.76413
-0.629029
-0.490665
-0.350759
-0.210611
-0.0702753
57.1093
57.1142
57.1279
57.1502
57.1811
57.219
57.267
57.3023
57.3845
57.3882
57.4831
57.4869
57.5355
-1.31907
-1.2252
-1.31121
-1.07378
-1.05318
-0.895562
-0.768627
-0.632704
-0.493516
-0.352789
-0.211827
-0.0706794
57.1054
57.1105
57.1242
57.1465
57.1772
57.2151
57.2632
57.2996
57.3815
57.3882
57.4818
57.4881
57.5373
-1.32823
-1.23429
-1.32006
-1.08163
-1.06038
-0.901757
-0.773896
-0.637011
-0.496857
-0.355168
-0.213251
-0.0711531
57.1013
57.1065
57.1201
57.1422
57.1729
57.2107
57.2589
57.2964
57.3782
57.3879
57.4806
57.4895
57.5394
-1.3387
-1.24456
-1.33004
-1.09052
-1.06852
-0.90877
-0.779862
-0.64189
-0.500642
-0.357864
-0.214865
-0.0716899
57.0971
57.1022
57.1157
57.1377
57.1681
57.2059
57.2541
57.2929
57.3745
57.3874
57.4796
57.4913
57.5419
-1.35032
-1.2559
-1.34101
-1.10033
-1.07748
-0.916502
-0.78644
-0.647271
-0.504818
-0.360839
-0.216646
-0.0722825
57.0928
57.0978
57.1111
57.1328
57.163
57.2006
57.2489
57.2889
57.3705
57.3869
57.4787
57.4935
57.5451
-1.36289
-1.26812
-1.35282
-1.11089
-1.08714
-0.924838
-0.793536
-0.653077
-0.509326
-0.364051
-0.21857
-0.0729223
57.0884
57.0933
57.1063
57.1277
57.1576
57.195
57.2434
57.2847
57.3663
57.3863
57.4781
57.4964
57.5491
-1.37621
-1.28102
-1.36528
-1.12206
-1.09735
-0.933656
-0.801045
-0.659223
-0.514098
-0.367452
-0.220607
-0.0736001
57.084
57.0888
57.1015
57.1225
57.152
57.1893
57.2376
57.2803
57.362
57.3858
57.478
57.5002
57.554
-1.39007
-1.29441
-1.37819
-1.13365
-1.10795
-0.94282
-0.808852
-0.665616
-0.519064
-0.370992
-0.222727
-0.0743058
57.0797
57.0842
57.0966
57.1172
57.1463
57.1834
57.2317
57.2757
57.3576
57.3855
57.4784
57.5048
57.5602
-1.40426
-1.30806
-1.39136
-1.14549
-1.11878
-0.952188
-0.816838
-0.672158
-0.524148
-0.374616
-0.224899
-0.0750285
57.0755
57.0798
57.0918
57.112
57.1407
57.1774
57.2257
57.2712
57.3534
57.3853
57.4796
57.5106
57.5677
-1.41854
-1.32176
-1.40457
-1.15739
-1.12966
-0.961613
-0.824877
-0.678747
-0.529269
-0.378268
-0.227087
-0.0757571
57.0714
57.0755
57.0872
57.1069
57.1351
57.1716
57.2198
57.2667
57.3493
57.3855
57.4817
57.5173
57.5767
-1.43269
-1.3353
-1.41761
-1.16915
-1.14043
-0.970943
-0.83284
-0.685276
-0.534345
-0.381889
-0.229258
-0.0764798
57.0676
57.0715
57.0828
57.102
57.1297
57.166
57.2142
57.2624
57.3455
57.386
57.4848
57.525
57.5872
-1.44648
-1.34844
-1.43027
-1.18059
-1.15091
-0.980026
-0.840596
-0.691639
-0.539294
-0.38542
-0.231375
-0.0771848
57.0642
57.0678
57.0786
57.0974
57.1246
57.1606
57.2088
57.2584
57.342
57.3869
57.4888
57.5339
57.5992
-1.45969
-1.361
-1.44235
-1.19152
-1.16092
-0.988714
-0.848018
-0.69773
-0.544034
-0.388802
-0.233403
-0.0778604
57.0611
57.0645
57.0749
57.0931
57.1199
57.1556
57.2038
57.2548
57.339
57.3882
57.4937
57.5437
57.6123
-1.4721
-1.37274
-1.45363
-1.20176
-1.17029
-0.99686
-0.854981
-0.703447
-0.548483
-0.391979
-0.235307
-0.078495
57.0586
57.0616
57.0715
57.0893
57.1156
57.1511
57.1993
57.2516
57.3365
57.3898
57.4993
57.554
57.6262
-1.48353
-1.38352
-1.46395
-1.21115
-1.17888
-1.00433
-0.861367
-0.708692
-0.552567
-0.394894
-0.237056
-0.0790776
57.0566
57.0593
57.0687
57.0859
57.1119
57.1471
57.1953
57.2488
57.3345
57.3915
57.5051
57.5644
57.6403
-1.49378
-1.39312
-1.47312
-1.21952
-1.18653
-1.01099
-0.867064
-0.713374
-0.556213
-0.397498
-0.238618
-0.0795981
57.0553
57.0574
57.0663
57.0831
57.1087
57.1436
57.1919
57.2465
57.3328
57.3932
57.5108
57.5744
57.6538
-1.50271
-1.40145
-1.481
-1.22674
-1.19312
-1.01673
-0.871977
-0.717412
-0.559358
-0.399744
-0.239966
-0.0800472
57.0547
57.0562
57.0644
57.0809
57.1061
57.1409
57.1892
57.2447
57.3316
57.3948
57.516
57.5833
57.6661
-1.51017
-1.40831
-1.48745
-1.23269
-1.19853
-1.02145
-0.876016
-0.720733
-0.561946
-0.401593
-0.241075
-0.0804168
57.0558
57.0556
57.0631
57.0792
57.1041
57.1388
57.1871
57.2433
57.3308
57.3961
57.5203
57.5907
57.6763
-1.51609
-1.41373
-1.49238
-1.23728
-1.20268
-1.02506
-0.879115
-0.723281
-0.56393
-0.403011
-0.241925
-0.0807
57.0558
57.055
57.0621
57.078
57.1028
57.1374
57.1857
57.2424
57.3303
57.3971
57.5231
57.5963
57.6838
-1.52034
-1.41733
-1.49568
-1.2404
-1.20549
-1.0275
-0.881216
-0.725007
-0.565275
-0.403971
-0.242502
-0.0808916
57.0612
57.0556
57.0618
57.0776
57.1023
57.1368
57.1851
57.242
57.3302
57.3977
57.5256
57.5995
57.688
-1.52285
-1.4198
-1.49731
-1.24209
-1.20694
-1.02873
-0.882292
-0.725885
-0.565958
-0.404459
-0.242793
-0.0809878
57.1219
57.1201
57.132
57.1539
57.1845
57.2218
57.2692
57.3014
57.3841
57.3781
57.4842
57.4792
57.524
-1.31263
-1.21681
-1.30011
-1.06342
-1.04109
-0.884651
-0.757877
-0.623005
-0.485336
-0.346544
-0.207864
-0.0692753
57.1154
57.1183
57.1312
57.1533
57.1839
57.2212
57.2687
57.3012
57.3837
57.3801
57.4794
57.4784
57.5248
-1.31342
-1.21781
-1.30183
-1.06473
-1.0424
-0.885802
-0.758827
-0.623786
-0.485941
-0.346975
-0.208121
-0.0693615
57.1128
57.1165
57.1298
57.1518
57.1825
57.2199
57.2674
57.3003
57.3826
57.3807
57.4783
57.4783
57.526
-1.31598
-1.22113
-1.30519
-1.06762
-1.04507
-0.888103
-0.760768
-0.62537
-0.487168
-0.347847
-0.208642
-0.069535
57.1089
57.1139
57.1275
57.1497
57.1803
57.2178
57.2654
57.2989
57.3808
57.381
57.4766
57.4786
57.5271
-1.3206
-1.22595
-1.31015
-1.07192
-1.04905
-0.891521
-0.763665
-0.627734
-0.488999
-0.349149
-0.209421
-0.0697938
57.1052
57.1109
57.1247
57.1469
57.1775
57.215
57.2626
57.2969
57.3785
57.381
57.4748
57.4789
57.528
-1.32704
-1.23256
-1.31666
-1.07764
-1.0543
-0.896025
-0.767483
-0.630848
-0.491411
-0.350864
-0.210447
-0.0701349
57.1015
57.1075
57.1214
57.1436
57.1741
57.2116
57.2591
57.2943
57.3756
57.3806
57.4728
57.4793
57.529
-1.33514
-1.24066
-1.32462
-1.08465
-1.06073
-0.901549
-0.77217
-0.634673
-0.494374
-0.352972
-0.211708
-0.0705539
57.0975
57.1037
57.1176
57.1397
57.1701
57.2075
57.255
57.2912
57.3721
57.3798
57.4707
57.4796
57.5299
-1.34478
-1.25024
-1.33392
-1.0929
-1.06826
-0.908023
-0.777664
-0.639157
-0.497847
-0.355443
-0.213186
-0.0710454
57.0935
57.0996
57.1135
57.1354
57.1655
57.2028
57.2503
57.2874
57.368
57.3786
57.4683
57.4799
57.5309
-1.3558
-1.26106
-1.34443
-1.10223
-1.07679
-0.915357
-0.78389
-0.644239
-0.501786
-0.358246
-0.214863
-0.0716029
57.0892
57.0953
57.109
57.1307
57.1605
57.1976
57.245
57.2832
57.3635
57.3769
57.4657
57.4803
57.5321
-1.36801
-1.27302
-1.35599
-1.11253
-1.08619
-0.923447
-0.79076
-0.64985
-0.506135
-0.361341
-0.216715
-0.0722188
57.0849
57.0909
57.1043
57.1256
57.1552
57.192
57.2392
57.2784
57.3584
57.3749
57.4629
57.4808
57.5334
-1.38123
-1.28591
-1.36843
-1.12364
-1.09632
-0.932177
-0.798177
-0.65591
-0.510833
-0.364685
-0.218717
-0.0728845
57.0804
57.0863
57.0994
57.1204
57.1495
57.186
57.233
57.2732
57.353
57.3725
57.46
57.4816
57.5351
-1.39524
-1.29952
-1.38156
-1.13538
-1.10703
-0.941417
-0.806032
-0.66233
-0.515813
-0.368231
-0.22084
-0.0735904
57.076
57.0816
57.0945
57.115
57.1436
57.1797
57.2265
57.2677
57.3472
57.3698
57.457
57.4826
57.5372
-1.40983
-1.31363
-1.39518
-1.14757
-1.11817
-0.951028
-0.814206
-0.669014
-0.520999
-0.371924
-0.223051
-0.0743261
57.0716
57.077
57.0895
57.1095
57.1376
57.1733
57.2198
57.2619
57.3412
57.3669
57.4541
57.4841
57.5399
-1.42475
-1.32804
-1.40906
-1.16003
-1.12955
-0.96086
-0.822574
-0.67586
-0.526312
-0.375709
-0.225318
-0.0750803
57.0673
57.0725
57.0845
57.1041
57.1316
57.1669
57.213
57.256
57.3352
57.3639
57.4516
57.4859
57.5434
-1.43976
-1.34249
-1.423
-1.17256
-1.141
-0.970758
-0.831004
-0.68276
-0.531669
-0.379526
-0.227604
-0.0758414
57.0632
57.0682
57.0798
57.0987
57.1257
57.1605
57.2062
57.2501
57.3291
57.361
57.4496
57.4882
57.5478
-1.45464
-1.35677
-1.43676
-1.18495
-1.15233
-0.980564
-0.839362
-0.689605
-0.536985
-0.383315
-0.229874
-0.076597
57.0594
57.0641
57.0752
57.0936
57.12
57.1542
57.1996
57.2443
57.3233
57.3582
57.4483
57.4913
57.5533
-1.46913
-1.37063
-1.45012
-1.197
-1.16336
-0.990117
-0.847509
-0.69628
-0.542172
-0.387013
-0.23209
-0.0773349
57.0559
57.0603
57.071
57.0888
57.1146
57.1483
57.1933
57.2388
57.3178
57.3557
57.4479
57.4953
57.5601
-1.48301
-1.38386
-1.46287
-1.20852
-1.17391
-0.999258
-0.855309
-0.702675
-0.547143
-0.390558
-0.234215
-0.0780424
57.0528
57.0569
57.0671
57.0844
57.1095
57.1427
57.1874
57.2336
57.3128
57.3535
57.4482
57.5001
57.5677
-1.49605
-1.39625
-1.47478
-1.21932
-1.18379
-1.00783
-0.862632
-0.708681
-0.551813
-0.393889
-0.236212
-0.0787076
57.0502
57.054
57.0637
57.0803
57.1049
57.1376
57.182
57.2289
57.3082
57.3517
57.4492
57.5054
57.5761
-1.50804
-1.4076
-1.48567
-1.22921
-1.19284
-1.0157
-0.869351
-0.714195
-0.556102
-0.396949
-0.238046
-0.0793189
57.0482
57.0516
57.0607
57.0768
57.1008
57.1331
57.1772
57.2248
57.3043
57.3502
57.4506
57.5108
57.5847
-1.51881
-1.41772
-1.49535
-1.23803
-1.20091
-1.02271
-0.875349
-0.719119
-0.559934
-0.399684
-0.239686
-0.0798653
57.0468
57.0497
57.0582
57.0739
57.0974
57.1293
57.1731
57.2213
57.301
57.3491
57.4523
57.5162
57.5931
-1.52817
-1.42649
-1.50367
-1.24565
-1.20787
-1.02877
-0.880522
-0.723367
-0.56324
-0.402044
-0.241102
-0.080337
57.0461
57.0484
57.0563
57.0715
57.0946
57.1261
57.1697
57.2184
57.2983
57.3483
57.4539
57.5209
57.6006
-1.536
-1.4337
-1.51047
-1.25191
-1.21357
-1.03374
-0.884777
-0.726863
-0.565962
-0.403987
-0.242268
-0.0807254
57.0472
57.0478
57.0549
57.0697
57.0924
57.1238
57.1672
57.2162
57.2963
57.3476
57.4553
57.5247
57.6068
-1.54219
-1.43941
-1.51567
-1.25675
-1.21795
-1.03755
-0.888042
-0.729545
-0.56805
-0.405478
-0.243162
-0.0810232
57.0472
57.0472
57.0539
57.0685
57.091
57.1222
57.1655
57.2148
57.2949
57.3472
57.4559
57.5275
57.6111
-1.54664
-1.44318
-1.51916
-1.26004
-1.22091
-1.04012
-0.890255
-0.731363
-0.569465
-0.406488
-0.243768
-0.0812249
57.0525
57.0478
57.0536
57.068
57.0904
57.1214
57.1647
57.2141
57.2944
57.3473
57.4565
57.529
57.6133
-1.54925
-1.44575
-1.52088
-1.26181
-1.22244
-1.04141
-0.891389
-0.732288
-0.570184
-0.407002
-0.244075
-0.0813264
57.113
57.1118
57.1238
57.1455
57.1757
57.2127
57.2597
57.2922
57.3741
57.3698
57.4737
57.4708
57.5163
-1.33313
-1.23589
-1.3163
-1.0765
-1.04981
-0.891452
-0.761627
-0.624827
-0.485854
-0.34634
-0.207433
-0.0690151
57.1064
57.1101
57.123
57.1448
57.1751
57.2121
57.2592
57.2919
57.3735
57.3716
57.4687
57.47
57.517
-1.33392
-1.237
-1.31812
-1.07789
-1.05119
-0.892667
-0.762627
-0.625646
-0.486488
-0.346789
-0.207701
-0.0691046
57.1039
57.1083
57.1215
57.1433
57.1736
57.2107
57.2577
57.2908
57.3722
57.372
57.4674
57.4697
57.518
-1.33672
-1.24055
-1.3217
-1.08097
-1.05401
-0.895095
-0.764669
-0.627309
-0.487773
-0.347702
-0.208246
-0.0692856
57.1
57.1056
57.1192
57.1412
57.1714
57.2084
57.2555
57.2892
57.3701
57.3719
57.4652
57.4696
57.5188
-1.34169
-1.24572
-1.32698
-1.08554
-1.05823
-0.898704
-0.767719
-0.629792
-0.489693
-0.349065
-0.20906
-0.069556
57.0963
57.1025
57.1164
57.1383
57.1685
57.2054
57.2524
57.2868
57.3673
57.3713
57.4627
57.4692
57.5192
-1.34858
-1.2528
-1.33393
-1.09162
-1.06379
-0.903463
-0.771741
-0.633066
-0.492223
-0.350862
-0.210134
-0.0699128
57.0925
57.099
57.113
57.1348
57.1649
57.2017
57.2486
57.2837
57.3638
57.3701
57.4598
57.4687
57.5193
-1.35724
-1.26147
-1.34242
-1.09908
-1.0706
-0.909302
-0.776682
-0.637088
-0.495334
-0.353072
-0.211455
-0.0703515
57.0886
57.0952
57.1091
57.1308
57.1606
57.1973
57.244
57.2799
57.3595
57.3683
57.4564
57.4678
57.5191
-1.36754
-1.27172
-1.35236
-1.10786
-1.07859
-0.916151
-0.782478
-0.641809
-0.498985
-0.355667
-0.213006
-0.0708668
57.0844
57.091
57.1049
57.1263
57.1558
57.1923
57.2388
57.2754
57.3545
57.3657
57.4524
57.4666
57.5185
-1.37932
-1.2833
-1.36358
-1.1178
-1.08764
-0.923916
-0.789052
-0.647165
-0.503129
-0.358612
-0.214767
-0.0714518
57.0801
57.0866
57.1003
57.1214
57.1506
57.1867
57.2328
57.2702
57.3487
57.3624
57.4476
57.465
57.5175
-1.39238
-1.2961
-1.37594
-1.12877
-1.09763
-0.932491
-0.796315
-0.653084
-0.507709
-0.361868
-0.216714
-0.072099
57.0757
57.0821
57.0954
57.1162
57.1449
57.1806
57.2263
57.2644
57.3423
57.3583
57.4421
57.4629
57.5161
-1.4065
-1.3099
-1.38924
-1.1406
-1.1084
-0.941752
-0.804164
-0.659484
-0.512664
-0.365391
-0.218821
-0.0727993
57.0712
57.0774
57.0904
57.1107
57.1388
57.174
57.2193
57.2579
57.3352
57.3534
57.4357
57.4604
57.5141
-1.42148
-1.32447
-1.40329
-1.15312
-1.1198
-0.951564
-0.812486
-0.666273
-0.517921
-0.369129
-0.221058
-0.0735429
57.0667
57.0727
57.0853
57.1051
57.1326
57.1672
57.2118
57.2509
57.3274
57.3476
57.4285
57.4572
57.5117
-1.43706
-1.33958
-1.41787
-1.16614
-1.13166
-0.96178
-0.821157
-0.67335
-0.523403
-0.373029
-0.223391
-0.0743189
57.0623
57.068
57.0802
57.0994
57.1262
57.1601
57.2041
57.2434
57.3193
57.3411
57.4208
57.4532
57.5088
-1.453
-1.35501
-1.43274
-1.17945
-1.1438
-0.972241
-0.830042
-0.680607
-0.529027
-0.377031
-0.225786
-0.0751156
57.0579
57.0634
57.0751
57.0937
57.1197
57.1529
57.1961
57.2357
57.3107
57.334
57.4128
57.4487
57.5056
-1.46905
-1.37049
-1.44766
-1.19283
-1.15602
-0.982783
-0.839004
-0.68793
-0.534704
-0.381072
-0.228205
-0.0759204
57.0537
57.0589
57.0702
57.0881
57.1134
57.1458
57.1881
57.2278
57.302
57.3265
57.4048
57.444
57.5024
-1.48493
-1.38578
-1.46241
-1.20607
-1.16812
-0.993236
-0.847897
-0.695201
-0.540344
-0.385088
-0.23061
-0.0767206
57.0498
57.0548
57.0655
57.0827
57.1072
57.1388
57.1803
57.22
57.2934
57.3188
57.397
57.4395
57.4996
-1.50041
-1.40062
-1.47673
-1.21896
-1.1799
-1.00343
-0.856575
-0.702301
-0.545853
-0.389011
-0.232959
-0.0775027
57.0463
57.0509
57.0611
57.0776
57.1013
57.132
57.1727
57.2124
57.2849
57.3114
57.3897
57.4353
57.4972
-1.51522
-1.41479
-1.49039
-1.23128
-1.19118
-1.01319
-0.864891
-0.709109
-0.551139
-0.392777
-0.235215
-0.0782537
57.0431
57.0474
57.057
57.0729
57.0958
57.1257
57.1656
57.2052
57.2769
57.3042
57.3831
57.4316
57.4956
-1.52912
-1.42804
-1.50316
-1.24283
-1.20175
-1.02235
-0.872704
-0.715509
-0.556109
-0.396319
-0.237337
-0.0789605
57.0405
57.0444
57.0535
57.0687
57.0908
57.1199
57.159
57.1985
57.2695
57.2976
57.3772
57.4284
57.4944
-1.54191
-1.44019
-1.51483
-1.25342
-1.21144
-1.03075
-0.879877
-0.721388
-0.560677
-0.399575
-0.239289
-0.0796105
57.0384
57.0419
57.0504
57.0649
57.0863
57.1148
57.1531
57.1925
57.2629
57.2915
57.372
57.4255
57.4935
-1.55338
-1.451
-1.5252
-1.26286
-1.22008
-1.03826
-0.886285
-0.726643
-0.564761
-0.402487
-0.241035
-0.0801921
57.037
57.04
57.0478
57.0618
57.0826
57.1104
57.1481
57.1873
57.2571
57.2863
57.3675
57.4228
57.4926
-1.56335
-1.46037
-1.53412
-1.27101
-1.22753
-1.04473
-0.891814
-0.731179
-0.568288
-0.405002
-0.242543
-0.0806946
57.0363
57.0386
57.0458
57.0592
57.0795
57.1067
57.1439
57.1831
57.2522
57.2819
57.3635
57.4201
57.4915
-1.57168
-1.46808
-1.54141
-1.27771
-1.23364
-1.05005
-0.896364
-0.734913
-0.571192
-0.407074
-0.243785
-0.0811086
57.0373
57.038
57.0443
57.0573
57.0771
57.104
57.1407
57.1798
57.2484
57.2785
57.3603
57.4174
57.4899
-1.57826
-1.47415
-1.54698
-1.28289
-1.23833
-1.05413
-0.899856
-0.737779
-0.573421
-0.408665
-0.244739
-0.0814264
57.0372
57.0374
57.0433
57.056
57.0756
57.1021
57.1385
57.1775
57.2457
57.2761
57.3574
57.415
57.488
-1.58298
-1.47818
-1.55072
-1.28639
-1.2415
-1.05689
-0.902223
-0.739722
-0.574932
-0.409743
-0.245386
-0.0816417
57.0426
57.038
57.043
57.0555
57.0749
57.1013
57.1375
57.1765
57.2443
57.2753
57.3562
57.4111
57.4861
-1.58574
-1.48087
-1.55257
-1.28828
-1.24314
-1.05827
-0.903434
-0.74071
-0.575701
-0.410292
-0.245715
-0.0817505
57.1028
57.1019
57.1137
57.1351
57.1649
57.2014
57.2479
57.2806
57.3615
57.3595
57.4604
57.4603
57.5061
-1.35929
-1.25992
-1.33645
-1.09274
-1.06045
-0.899631
-0.766017
-0.626812
-0.486247
-0.345888
-0.206769
-0.0686446
57.0962
57.1001
57.1129
57.1344
57.1642
57.2007
57.2473
57.2802
57.3608
57.3608
57.4556
57.4593
57.5068
-1.36005
-1.26117
-1.33841
-1.09425
-1.06192
-0.900925
-0.767079
-0.627679
-0.486916
-0.346361
-0.20705
-0.0687381
57.0936
57.0982
57.1114
57.1329
57.1627
57.1992
57.2457
57.2789
57.3592
57.3608
57.4541
57.4587
57.5076
-1.36323
-1.26502
-1.34226
-1.09755
-1.06494
-0.903512
-0.769249
-0.62944
-0.488274
-0.347324
-0.207624
-0.0689283
57.0897
57.0955
57.109
57.1306
57.1603
57.1968
57.2432
57.2769
57.3568
57.3602
57.4513
57.4581
57.5079
-1.36864
-1.27064
-1.34797
-1.10247
-1.06945
-0.907362
-0.772489
-0.632071
-0.490303
-0.348763
-0.208482
-0.0692132
57.086
57.0924
57.1061
57.1277
57.1572
57.1936
57.2398
57.2741
57.3534
57.3589
57.4479
57.4569
57.5076
-1.37611
-1.27832
-1.35548
-1.10901
-1.0754
-0.91244
-0.776766
-0.635542
-0.492982
-0.350662
-0.209616
-0.0695894
57.0822
57.0888
57.1027
57.1241
57.1534
57.1895
57.2355
57.2704
57.3491
57.3567
57.4438
57.4553
57.5066
-1.38551
-1.28772
-1.36465
-1.11704
-1.0827
-0.918676
-0.782024
-0.639812
-0.496277
-0.352999
-0.211012
-0.0700527
57.0782
57.0849
57.0987
57.1199
57.149
57.1848
57.2304
57.2659
57.3439
57.3536
57.4388
57.4529
57.5048
-1.39668
-1.29882
-1.37539
-1.12649
-1.09127
-0.925997
-0.7882
-0.644829
-0.500149
-0.355747
-0.212653
-0.0705974
57.074
57.0807
57.0943
57.1152
57.1439
57.1793
57.2245
57.2604
57.3377
57.3494
57.4327
57.4497
57.5022
-1.40944
-1.31139
-1.38754
-1.13719
-1.10098
-0.934307
-0.795214
-0.650529
-0.50455
-0.35887
-0.214518
-0.0712169
57.0696
57.0762
57.0896
57.1101
57.1383
57.1732
57.2178
57.2541
57.3305
57.344
57.4251
57.4454
57.4983
-1.4236
-1.32527
-1.40091
-1.14902
-1.11171
-0.943494
-0.802972
-0.656836
-0.509421
-0.362328
-0.216584
-0.0719031
57.0652