/*--------------------------------*- C++ -*----------------------------------*\
  =========                 |
  \\      /  F ield         | OpenFOAM: The Open Source CFD Toolbox
   \\    /   O peration     | Website:  https://openfoam.org
    \\  /    A nd           | Version:  11
     \\/     M anipulation  |
\*---------------------------------------------------------------------------*/
FoamFile
{
    format      ascii;
    class       volScalarField;
    location    "800";
    object      epsilon;
}
// * * * * * * * * * * * * * * * * * * * * * * * * * * * * * * * * * * * * * //

dimensions      [0 2 -3 0 0 0 0];

internalField   nonuniform List<scalar> 
729
(
31.859
151.446
255.566
320.931
353.838
347.033
316.264
257.881
105.31
7.02666
14.0398
39.0483
62.9851
85.8611
100.154
101.281
90.1001
64.9504
0.162871
0.562867
1.14974
3.79119
10.2987
21.2772
32.8817
40.6636
36.9655
0.0216915
0.049339
0.143769
0.292673
1.23373
4.92564
13.1566
22.1072
22.6023
0.0205334
0.0593198
0.136795
0.254892
0.637735
2.09498
6.74498
13.4209
14.3114
0.0227722
0.0680399
0.172099
0.322263
0.596215
1.47741
4.38471
8.83358
9.43174
0.0229395
0.0774148
0.177168
0.33752
0.610309
1.25582
3.22712
5.93467
6.17118
0.023155
0.0791097
0.187158
0.358417
0.616648
1.14092
2.68405
4.46879
4.464
0.0232237
0.0802616
0.18689
0.359097
0.616943
1.03805
1.97375
2.82563
2.64133
118.227
426.155
570.93
663.864
713.379
711.748
660.153
560.865
451.832
9.08329
54.9451
106.635
152.423
186.133
202.829
201.63
199.08
257.808
0.193323
2.11504
10.2335
22.5984
38.3445
53.4741
66.3086
83.5064
122.905
0.0505138
0.137028
0.265382
2.32604
6.33707
14.6839
26.1014
41.6638
64.2907
0.063296
0.0660952
0.153412
0.509118
1.64018
5.36023
12.6762
23.3827
36.2415
0.0664354
0.0854748
0.169242
0.398019
1.03805
2.99436
7.47786
14.3253
21.7963
0.0718138
0.086069
0.191321
0.412305
0.910297
2.1956
5.05706
9.21916
13.3926
0.0726217
0.0876386
0.198208
0.434209
0.878637
1.82973
3.79168
6.46515
9.15901
0.0731565
0.0883158
0.201819
0.440317
0.868024
1.58482
2.75068
4.00483
5.20926
150.459
488.876
653.213
770.254
838.169
845.428
794.289
692.416
686.489
12.2122
74.5627
144.372
204.47
247.836
269.743
271.092
277.16
390.289
0.321909
4.85636
19.0033
40.0817
62.4148
81.7286
98.0343
122.271
183.355
0.0998996
0.179812
1.3646
5.25504
13.7844
25.686
40.7536
61.8562
95.0599
0.112412
0.115475
0.28222
0.989857
3.59293
9.69238
19.8897
34.4199
52.8789
0.119063
0.118093
0.238231
0.597143
1.74169
4.95973
11.3681
20.6814
31.2837
0.123762
0.124619
0.253788
0.557841
1.31422
3.30007
7.35212
13.0546
18.9506
0.124819
0.125678
0.263534
0.561108
1.17469
2.54999
5.25886
8.93275
12.7449
0.125267
0.126596
0.267751
0.566572
1.12366
2.10128
3.6983
5.46345
7.16383
165.538
510.22
684.406
814.343
892.877
905.748
854.34
753.066
786.213
14.514
82.7533
162.124
230.133
279.406
304.873
307.821
316.91
449.317
0.450246
6.67458
24.5725
50.4462
76.5942
98.7372
117.539
145.052
212.176
0.135482
0.320945
2.16847
8.0021
19.0219
33.2674
50.825
74.8195
110.647
0.142773
0.151637
0.401798
1.53608
5.2983
13.0748
25.256
41.8866
61.638
0.155324
0.147921
0.302534
0.785489
2.39836
6.62496
14.4042
25.0937
36.3945
0.157254
0.153575
0.302859
0.678599
1.66649
4.23442
9.17839
15.7245
21.9816
0.160759
0.155119
0.314124
0.663404
1.41561
3.14133
6.42976
10.6468
14.7046
0.160403
0.156071
0.318279
0.663291
1.32008
2.50467
4.42597
6.44741
8.2272
170.837
515.067
692.543
826.627
908.578
923.256
871.847
770.88
813.88
15.4388
84.9815
167.3
237.843
289.06
315.733
319.202
328.989
465.552
0.498464
7.2877
26.4189
53.8297
81.2318
104.34
123.979
152.392
220.53
0.149678
0.348498
2.47236
9.03144
20.8808
35.9298
54.3296
79.1336
115.232
0.15328
0.169668
0.451027
1.77052
5.96603
14.3358
27.1999
44.4257
64.2555
0.168151
0.156517
0.325948
0.864639
2.66783
7.27242
15.5327
26.6133
37.9404
0.169533
0.16458
0.322435
0.726498
1.80914
4.60232
9.86511
16.6476
22.9047
0.173165
0.165889
0.332963
0.702298
1.51035
3.37311
6.87187
11.2398
15.3009
0.172811
0.166865
0.336995
0.699649
1.39508
2.65974
4.69708
6.78386
8.54963
166.015
510.53
684.279
814.391
892.99
905.871
854.463
753.172
786.385
14.5069
82.4366
162.018
230.169
279.485
304.96
307.909
316.994
449.436
0.425747
6.66011
24.5591
50.4504
76.6292
98.7862
117.593
145.109
212.248
0.127187
0.805001
2.13208
8.02218
19.0298
33.2915
50.8562
74.8563
110.691
0.142575
0.142724
0.395463
1.54243
5.30167
13.0871
25.2736
41.9096
61.6655
0.154884
0.149403
0.302162
0.785631
2.40025
6.63052
14.4143
25.1082
36.412
0.156979
0.15312
0.302453
0.678444
1.66722
4.23726
9.1845
15.7336
21.9927
0.160404
0.155017
0.313962
0.663187
1.41588
3.14299
6.43373
10.6529
14.7124
0.160091
0.15584
0.317992
0.663093
1.32027
2.50573
4.4284
6.45104
8.23174
149.344
492.241
653.194
770.463
838.416
845.661
794.535
692.537
686.966
11.9435
74.3026
144.248
204.599
248.013
269.916
271.271
277.294
390.583
0.32761
5.11363
18.9247
40.1003
62.4794
81.82
98.1364
122.367
183.509
0.0973242
0.249403
1.219
5.40688
13.7631
25.7231
40.8069
61.918
95.1473
0.111628
0.117536
0.275076
1.00697
3.58975
9.71129
19.9181
34.4581
52.9301
0.119496
0.118319
0.237474
0.597003
1.7433
4.96734
11.3838
20.7051
31.3149
0.122012
0.124117
0.252878
0.557438
1.31497
3.30393
7.36139
13.0694
18.9701
0.125003
0.125364
0.26333
0.560586
1.17489
2.55227
5.2649
8.94277
12.7584
0.124715
0.126179
0.26717
0.566104
1.12382
2.10282
3.70208
5.46945
7.17183
112.028
438.114
571.432
664.282
713.691
712.025
660.588
560.535
453.135
7.52209
57.2971
106.929
152.769
186.416
203.075
201.909
199.158
258.439
0.228392
3.26844
10.0399
22.6758
38.4432
53.583
66.4346
83.5998
123.173
0.0489767
0.182444
0.252156
2.32216
6.35231
14.7205
26.1588
41.7254
64.4152
0.0614012
0.0622272
0.151202
0.510364
1.64219
5.37332
12.7034
23.4198
36.3049
0.0659006
0.0862753
0.168872
0.397581
1.03822
2.99953
7.49164
14.348
21.8321
0.0711735
0.0852399
0.18636
0.411408
0.910324
2.19818
5.06492
9.23326
13.4137
0.0720442
0.0873132
0.199258
0.433469
0.878491
1.8313
3.7968
6.47486
9.1735
0.0725604
0.08788
0.201045
0.4396
0.867946
1.58599
2.75402
4.01082
5.21802
31.6531
145.216
256.299
321.896
354.698
347.465
318.348
254.979
106.972
3.98085
24.0057
38.6215
63.9083
86.1419
100.478
101.386
90.4256
65.506
0.232192
0.329957
1.26116
3.80787
10.3851
21.3798
32.9693
40.7578
37.141
0.0214041
0.0511783
0.143192
0.29601
1.23757
4.95312
13.1947
22.1482
22.6709
0.0200954
0.0575373
0.135874
0.255447
0.638052
2.10221
6.76052
13.4413
14.3447
0.0223792
0.0684272
0.161354
0.321768
0.596386
1.47819
4.39134
8.84605
9.45156
0.0225611
0.0763941
0.181299
0.33854
0.609646
1.25601
3.23028
5.94311
6.18388
0.0227851
0.0784197
0.183953
0.356908
0.616378
1.14097
2.68603
4.47559
4.47359
0.0228489
0.07954
0.185935
0.358164
0.616373
1.038
1.97511
2.82993
2.64751
)
;

boundaryField
{
    inlet
    {
        type            fixedValue;
        value           uniform 14.855;
    }
    outlet
    {
        type            zeroGradient;
    }
    lowerWall
    {
        type            epsilonWallFunction;
        value           nonuniform List<scalar> 
162
(
31.859
118.227
150.459
165.538
170.837
166.015
149.344
112.028
31.6531
7.02666
9.08329
12.2122
14.514
15.4388
14.5069
11.9435
7.52209
3.98085
0.162871
0.193323
0.321909
0.450246
0.498464
0.425747
0.32761
0.228392
0.232192
0.0216915
0.0505138
0.0998996
0.135482
0.149678
0.127187
0.0973242
0.0489767
0.0214041
0.0205334
0.063296
0.112412
0.142773
0.15328
0.142575
0.111628
0.0614012
0.0200954
0.0227722
0.0664354
0.119063
0.155324
0.168151
0.154884
0.119496
0.0659006
0.0223792
0.0229395
0.0718138
0.123762
0.157254
0.169533
0.156979
0.122012
0.0711735
0.0225611
0.023155
0.0726217
0.124819
0.160759
0.173165
0.160404
0.125003
0.0720442
0.0227851
0.0232237
0.0731565
0.125267
0.160403
0.172811
0.160091
0.124715
0.0725604
0.0228489
105.31
451.832
686.489
786.213
813.88
786.385
686.966
453.135
106.972
64.9504
257.808
390.289
449.317
465.552
449.436
390.583
258.439
65.506
36.9655
122.905
183.355
212.176
220.53
212.248
183.509
123.173
37.141
22.6023
64.2907
95.0599
110.647
115.232
110.691
95.1473
64.4152
22.6709
14.3114
36.2415
52.8789
61.638
64.2555
61.6655
52.9301
36.3049
14.3447
9.43174
21.7963
31.2837
36.3945
37.9404
36.412
31.3149
21.8321
9.45156
6.17118
13.3926
18.9506
21.9816
22.9047
21.9927
18.9701
13.4137
6.18388
4.464
9.15901
12.7449
14.7046
15.3009
14.7124
12.7584
9.1735
4.47359
2.64133
5.20926
7.16383
8.2272
8.54963
8.23174
7.17183
5.21802
2.64751
)
;
    }
    upperWall
    {
        type            epsilonWallFunction;
        value           nonuniform List<scalar> 
162
(
31.859
31.6531
7.02666
3.98085
0.162871
0.232192
0.0216915
0.0214041
0.0205334
0.0200954
0.0227722
0.0223792
0.0229395
0.0225611
0.023155
0.0227851
0.0232237
0.0228489
151.446
145.216
14.0398
24.0057
0.562867
0.329957
0.049339
0.0511783
0.0593198
0.0575373
0.0680399
0.0684272
0.0774148
0.0763941
0.0791097
0.0784197
0.0802616
0.07954
255.566
256.299
39.0483
38.6215
1.14974
1.26116
0.143769
0.143192
0.136795
0.135874
0.172099
0.161354
0.177168
0.181299
0.187158
0.183953
0.18689
0.185935
320.931
321.896
62.9851
63.9083
3.79119
3.80787
0.292673
0.29601
0.254892
0.255447
0.322263
0.321768
0.33752
0.33854
0.358417
0.356908
0.359097
0.358164
353.838
354.698
85.8611
86.1419
10.2987
10.3851
1.23373
1.23757
0.637735
0.638052
0.596215
0.596386
0.610309
0.609646
0.616648
0.616378
0.616943
0.616373
347.033
347.465
100.154
100.478
21.2772
21.3798
4.92564
4.95312
2.09498
2.10221
1.47741
1.47819
1.25582
1.25601
1.14092
1.14097
1.03805
1.038
316.264
318.348
101.281
101.386
32.8817
32.9693
13.1566
13.1947
6.74498
6.76052
4.38471
4.39134
3.22712
3.23028
2.68405
2.68603
1.97375
1.97511
257.881
254.979
90.1001
90.4256
40.6636
40.7578
22.1072
22.1482
13.4209
13.4413
8.83358
8.84605
5.93467
5.94311
4.46879
4.47559
2.82563
2.82993
105.31
106.972
64.9504
65.506
36.9655
37.141
22.6023
22.6709
14.3114
14.3447
9.43174
9.45156
6.17118
6.18388
4.464
4.47359
2.64133
2.64751
)
;
    }
}


// ************************************************************************* //
