/*--------------------------------*- C++ -*----------------------------------*\
  =========                 |
  \\      /  F ield         | OpenFOAM: The Open Source CFD Toolbox
   \\    /   O peration     | Website:  https://openfoam.org
    \\  /    A nd           | Version:  11
     \\/     M anipulation  |
\*---------------------------------------------------------------------------*/
FoamFile
{
    format      ascii;
    class       volScalarField;
    location    "800";
    object      p;
}
// * * * * * * * * * * * * * * * * * * * * * * * * * * * * * * * * * * * * * //

dimensions      [0 2 -2 0 0 0 0];

internalField   nonuniform List<scalar> 
729
(
2.92243
3.53752
3.11239
2.11599
1.13121
0.256137
-0.412175
-1.32229
2.35353
0.294772
0.207171
0.219203
0.0794764
-0.0982722
-0.188987
-0.0704117
0.185116
1.39151
0.185173
0.201328
0.225038
0.153975
0.0015607
-0.122194
-0.0898819
0.074366
0.424338
0.136167
0.137559
0.107478
0.017936
-0.120092
-0.23192
-0.238418
-0.189951
-0.0398473
0.101892
0.0774617
0.0150191
-0.0818227
-0.197693
-0.281593
-0.294125
-0.257193
-0.149144
0.058132
0.0215514
-0.0447911
-0.133926
-0.225679
-0.280774
-0.287219
-0.23179
-0.148159
0.0270835
-0.00665203
-0.0609247
-0.130467
-0.196006
-0.230166
-0.232621
-0.179356
-0.129101
0.00663584
-0.0132991
-0.0441568
-0.083542
-0.120054
-0.143008
-0.144879
-0.101939
-0.0783077
-0.00387968
-0.00708966
-0.0117286
-0.0179081
-0.0241295
-0.0368218
-0.0342433
-0.0306072
-0.0508707
3.67713
4.80092
4.12389
2.60669
1.23523
-0.119461
-1.77094
-4.36518
2.27723
-0.100086
-0.180367
-0.243618
-0.307799
-0.323266
-0.264537
0.0310581
0.484801
3.0949
0.180816
0.198653
0.201987
0.129562
0.0145735
-0.0711988
-0.00513639
0.195577
1.19191
0.108464
0.102409
0.0662541
-0.023418
-0.145587
-0.238323
-0.256568
-0.345815
-0.0840575
0.077513
0.0364569
-0.0302108
-0.120478
-0.222158
-0.296455
-0.324217
-0.435738
-0.317675
0.0320101
-0.0179312
-0.0824493
-0.161112
-0.236823
-0.287664
-0.306544
-0.374012
-0.257042
0.00728895
-0.0356428
-0.0858868
-0.145524
-0.199131
-0.232658
-0.246502
-0.29247
-0.206389
-0.00422879
-0.0286381
-0.0568388
-0.090478
-0.121759
-0.143179
-0.152787
-0.184683
-0.133716
-0.00569874
-0.00952521
-0.0137269
-0.0193944
-0.026188
-0.0349138
-0.0396946
-0.0742977
-0.0878104
4.54381
6.21541
5.53785
3.59867
1.81984
-0.0310624
-2.76348
-6.65919
1.61379
-0.196423
-0.313477
-0.551965
-0.645928
-0.566304
-0.370963
0.117644
0.935529
4.37513
0.142336
0.155341
0.125834
0.0418083
-0.0574174
-0.101106
0.0837901
0.480886
1.9447
0.0471202
0.044738
0.0059079
-0.0843016
-0.198537
-0.280104
-0.271039
-0.370522
-0.0149473
0.0380165
-0.00112478
-0.0602882
-0.144884
-0.242806
-0.318619
-0.345305
-0.482707
-0.368377
0.00283389
-0.045264
-0.100658
-0.169591
-0.237713
-0.289458
-0.310262
-0.388616
-0.257179
-0.0118458
-0.0529799
-0.0963149
-0.148315
-0.194079
-0.22551
-0.240148
-0.293737
-0.193576
-0.0143831
-0.0378764
-0.0621695
-0.0915497
-0.116738
-0.132856
-0.139952
-0.177889
-0.124759
-0.00738396
-0.0109437
-0.0141171
-0.0191081
-0.0241268
-0.028341
-0.032086
-0.0705407
-0.0889455
5.02278
6.86127
6.22008
4.11247
2.12988
-0.00660976
-3.32375
-7.67746
1.10187
-0.201356
-0.416521
-0.728529
-0.815688
-0.687664
-0.430865
0.155505
1.22169
4.95909
0.102661
0.108954
0.0483011
-0.0492344
-0.137313
-0.140368
0.147183
0.714218
2.43214
0.00683464
0.00620268
-0.0400168
-0.135782
-0.245904
-0.311555
-0.26269
-0.3292
0.0877515
0.00904377
-0.029061
-0.0859785
-0.169085
-0.26464
-0.336336
-0.349833
-0.481102
-0.380908
-0.0178137
-0.064963
-0.115585
-0.178479
-0.241756
-0.291977
-0.309725
-0.382217
-0.259256
-0.0251427
-0.0652015
-0.104491
-0.15091
-0.190771
-0.219608
-0.235164
-0.288086
-0.193205
-0.021351
-0.0441521
-0.0660095
-0.0919849
-0.112451
-0.124371
-0.132361
-0.173688
-0.129545
-0.00871425
-0.0122782
-0.0148775
-0.0191154
-0.0227533
-0.0241925
-0.029106
-0.0724333
-0.0973817
5.15911
7.03722
6.41605
4.26192
2.21737
-0.00829079
-3.49887
-7.95501
0.923342
-0.197793
-0.451446
-0.781082
-0.862939
-0.721577
-0.448262
0.166904
1.30779
5.11302
0.08678
0.090434
0.0209647
-0.0791392
-0.162385
-0.151247
0.171258
0.795731
2.59624
-0.00637631
-0.00707664
-0.0559923
-0.15358
-0.261802
-0.320804
-0.256152
-0.307255
0.128487
-0.001227
-0.0393707
-0.0955428
-0.178111
-0.272771
-0.342215
-0.349761
-0.476691
-0.384753
-0.0250894
-0.0718759
-0.120957
-0.181852
-0.24361
-0.292963
-0.308956
-0.377259
-0.260672
-0.0298179
-0.0694491
-0.107365
-0.15179
-0.189656
-0.217465
-0.232871
-0.283261
-0.19198
-0.0237292
-0.0462736
-0.0672752
-0.0919786
-0.110774
-0.121212
-0.129104
-0.16953
-0.129133
-0.00908574
-0.0126537
-0.0150363
-0.0189934
-0.0221149
-0.0225535
-0.0275354
-0.0713004
-0.0982341
5.01818
6.85952
6.2191
4.11213
2.12971
-0.00687534
-3.32442
-7.67762
1.10355
-0.2
-0.412737
-0.72837
-0.816506
-0.688086
-0.430848
0.155999
1.22278
4.96133
0.100845
0.106444
0.0469734
-0.0490606
-0.137083
-0.140171
0.14769
0.715071
2.43377
0.00787907
0.00646499
-0.0403653
-0.135365
-0.245482
-0.311249
-0.262314
-0.328816
0.0884248
0.00963292
-0.0295821
-0.0860412
-0.168844
-0.264382
-0.336071
-0.349542
-0.48084
-0.380616
-0.017615
-0.0650405
-0.115606
-0.178279
-0.241523
-0.291748
-0.309497
-0.381998
-0.259061
-0.0249533
-0.0650949
-0.10438
-0.15075
-0.190601
-0.219447
-0.235012
-0.287939
-0.193089
-0.0212184
-0.0440356
-0.0659127
-0.0918897
-0.112355
-0.124282
-0.13228
-0.173613
-0.129497
-0.00864232
-0.0122088
-0.0148243
-0.0190761
-0.0227265
-0.0241686
-0.0290844
-0.0724187
-0.0973875
4.53199
6.20905
5.535
3.59761
1.81934
-0.0315693
-2.76468
-6.65953
1.6179
-0.193289
-0.317261
-0.557073
-0.649073
-0.567963
-0.371483
0.118363
0.937563
4.3795
0.140451
0.152371
0.123624
0.0407731
-0.0578806
-0.10104
0.0845478
0.482262
1.94741
0.0458724
0.0440307
0.00551065
-0.0840628
-0.198095
-0.279588
-0.270421
-0.369952
-0.0137749
0.0375168
-0.00143252
-0.0603413
-0.144506
-0.242294
-0.318088
-0.344789
-0.482304
-0.367822
0.00302866
-0.0451769
-0.100482
-0.1692
-0.237258
-0.289014
-0.309851
-0.388282
-0.256827
-0.0114602
-0.0526635
-0.0960501
-0.148014
-0.193763
-0.225214
-0.239883
-0.293526
-0.19338
-0.0140821
-0.0375973
-0.0619563
-0.0913613
-0.11656
-0.132702
-0.139821
-0.177793
-0.124681
-0.00724319
-0.0107966
-0.0140083
-0.0190301
-0.0240769
-0.0283019
-0.0320543
-0.0705285
-0.088957
3.65261
4.79184
4.12302
2.60795
1.23695
-0.118472
-1.77139
-4.36425
2.28487
-0.0971758
-0.199288
-0.257501
-0.313809
-0.325947
-0.265516
0.0319633
0.487539
3.10078
0.178492
0.19043
0.196996
0.127599
0.0138838
-0.0711032
-0.0042077
0.197241
1.19498
0.106638
0.100264
0.065077
-0.0231917
-0.144855
-0.237472
-0.255743
-0.345084
-0.0827227
0.0772183
0.0359028
-0.0304466
-0.11997
-0.221371
-0.295659
-0.323541
-0.435258
-0.316977
0.032698
-0.0176039
-0.0822079
-0.160614
-0.236222
-0.287079
-0.30603
-0.373657
-0.256624
0.00804067
-0.0350114
-0.0854796
-0.145135
-0.198746
-0.232313
-0.246197
-0.292284
-0.206197
-0.00370864
-0.0281477
-0.0565013
-0.0902289
-0.121549
-0.143021
-0.152663
-0.184637
-0.133666
-0.00548649
-0.00931096
-0.0135642
-0.0192883
-0.0261293
-0.0348833
-0.0396746
-0.0743108
-0.0878508
2.85197
3.52213
3.12054
2.12412
1.1398
0.262911
-0.407174
-1.31664
2.36339
0.287464
0.188257
0.205179
0.0770787
-0.0984616
-0.188083
-0.0678237
0.189112
1.39749
0.187353
0.19247
0.217475
0.151684
0.00129692
-0.121453
-0.0883318
0.0764311
0.42691
0.135565
0.135697
0.105511
0.017911
-0.119337
-0.23096
-0.237441
-0.189148
-0.0386165
0.10198
0.0774249
0.0147134
-0.0814475
-0.19692
-0.280785
-0.293425
-0.256769
-0.148316
0.0588651
0.0225287
-0.0442591
-0.133349
-0.225047
-0.280203
-0.286726
-0.23154
-0.147623
0.0279298
-0.00563089
-0.0602519
-0.129941
-0.195608
-0.229862
-0.232392
-0.179292
-0.128846
0.00722443
-0.0126212
-0.0436816
-0.0832127
-0.119869
-0.142904
-0.144858
-0.101998
-0.0782172
-0.0036491
-0.00684629
-0.0115583
-0.017791
-0.0241019
-0.0368253
-0.0342806
-0.0306479
-0.050894
)
;

boundaryField
{
    inlet
    {
        type            zeroGradient;
    }
    outlet
    {
        type            fixedValue;
        value           uniform 0;
    }
    lowerWall
    {
        type            zeroGradient;
    }
    upperWall
    {
        type            zeroGradient;
    }
}


// ************************************************************************* //
