/*--------------------------------*- C++ -*----------------------------------*\
  =========                 |
  \\      /  F ield         | OpenFOAM: The Open Source CFD Toolbox
   \\    /   O peration     | Website:  https://openfoam.org
    \\  /    A nd           | Version:  11
     \\/     M anipulation  |
\*---------------------------------------------------------------------------*/
FoamFile
{
    format      ascii;
    class       surfaceScalarField;
    location    "800";
    object      phi;
}
// * * * * * * * * * * * * * * * * * * * * * * * * * * * * * * * * * * * * * //

dimensions      [0 3 -1 0 0 0 0];

internalField   nonuniform List<scalar> 
1944
(
0.008248
-0.00197662
-0.00636682
0.011959
0.0025522
-0.0062916
0.0170231
0.000555189
-0.00564871
0.0204381
0.000790206
-0.00421527
0.0227722
0.000345703
-0.00268384
0.02401
-0.000479227
-0.000759208
0.0232323
-0.00181632
0.00259597
0.0196587
-0.00307288
0.00664757
0.0157281
0.00393311
-0.0025468
-0.00361623
0.00413997
0.000799975
-0.004309
0.00347191
0.00447585
-0.00516832
0.00202852
0.00799402
-0.00405726
0.00132027
0.0106171
-0.0031025
0.000821314
0.0115991
-0.0020789
0.000617147
0.00986479
-0.000825134
0.000743743
0.00339323
0.00270794
0.000692941
0.0195083
-0.000385317
-0.000642036
-0.00315812
0.000147903
0.00149556
-0.00766099
0.0011993
0.00322416
-0.00853739
0.00163177
0.00501656
-0.00759569
0.00174049
0.00616883
-0.00569354
0.00143631
0.00610228
-0.0029488
0.000935482
0.00400744
0.00100765
0.000262278
-0.00056664
0.0080593
-0.000776132
0.0210815
-0.00213898
0.000922217
-0.00507065
0.000983825
0.00170626
-0.00956722
0.00111883
0.00261637
-0.0104307
0.000981265
0.00350343
-0.00945683
0.000972296
0.0038711
-0.00696595
0.00090325
0.00330237
-0.00311025
0.000729308
0.0014767
0.00250448
0.000328685
-0.00180062
0.0118483
-0.000511188
0.0212427
-0.00196151
0.000952914
-0.00664112
0.00061667
0.00148892
-0.0108154
0.000712264
0.00198903
-0.0115567
0.000626075
0.00243638
-0.0103751
0.000470868
0.00248552
-0.0073617
0.000346056
0.00179258
-0.00276736
0.00034958
4.06478e-05
0.00397788
0.000278365
-0.00223047
0.0143855
-0.000265946
0.0205564
-0.00154411
0.000731511
-0.00784836
0.000474684
0.00101237
-0.0115973
0.000500698
0.00125633
-0.0121948
0.000394558
0.00143251
-0.0107682
0.000217249
0.00130298
-0.00724914
1.69418e-05
0.000594668
-0.00207671
1.74012e-05
-0.00104162
0.0055116
0.000102522
-0.00237901
0.0159147
-0.000191659
0.0194331
-0.00125569
0.000431187
-0.00856818
0.000286869
0.000534614
-0.0119913
0.000290147
0.000626839
-0.0124901
0.000203154
0.000646107
-0.0108449
5.75697e-05
0.000410787
-0.00687846
-0.000135333
-0.00033517
-0.00115875
-0.000172051
-0.00174164
0.00696114
-4.30201e-05
-0.00237303
0.0167261
-0.000179992
0.018083
-0.00102304
0.000183568
-0.00891149
0.000158366
0.000180571
-0.012138
0.000149168
0.0001704
-0.0125618
8.1781e-05
9.29908e-05
-0.0107455
-2.19209e-05
-0.000180746
-0.00644072
-0.000163959
-0.00100761
-5.58507e-05
-0.000276007
-0.00217959
0.00831391
-0.000180748
-0.00229705
0.0170728
-0.000229189
0.0166579
-0.00087192
5.39905e-05
8.84235e-05
1.87217e-05
7.06751e-05
-4.82436e-05
2.08609e-05
-0.000188413
-5.04462e-05
-0.00053975
-0.000146284
-0.00147491
-0.000292799
-0.00219532
-0.000271952
-0.00192048
-0.000321432
-0.000688502
0.00492038
-0.00657887
-0.00472952
0.0112513
-0.00806962
-0.00456882
0.0155143
-0.00566287
-0.00425672
0.018505
-0.00385885
-0.00335242
0.0208838
-0.00289836
-0.00216658
0.0231189
-0.00239466
-0.000600028
0.0255626
-0.00188002
0.0020329
0.0253381
0.00215045
0.00472384
0.0244647
0.00480866
0.000972236
-0.00599832
0.00259332
0.00350706
-0.00873269
0.00159658
0.00711452
-0.00797492
0.000728258
0.0103206
-0.0061062
0.000357901
0.0124057
-0.00438961
0.000225837
0.0129636
-0.00267834
0.000342463
0.0111945
-0.000154612
0.000788066
0.00663177
0.00626876
0.00113893
0.0287187
0.00199365
0.000867153
-0.00785828
0.00115842
0.0029282
-0.0113426
0.00175017
0.00478263
-0.0101786
0.00197917
0.0066022
-0.00793484
0.00174757
0.00764788
-0.00530783
0.00130761
0.00732013
-0.002223
0.000807473
0.00505823
0.00211533
0.000254498
0.00114831
0.00986035
-0.000456994
0.0282809
-0.000552345
0.00117096
-0.00919491
0.00115763
0.00189741
-0.0120531
0.00110625
0.00285775
-0.0112068
0.00104994
0.00383832
-0.00898638
0.0010429
0.00430382
-0.00577265
0.000902036
0.00386225
-0.00166752
0.00061506
0.00229991
0.00385145
0.00015486
-0.00024698
0.0124077
-0.000511519
0.0271967
-0.00112425
0.00111018
-0.0103672
0.000682763
0.00165831
-0.0125676
0.00068076
0.00211414
-0.0115759
0.000540741
0.00248443
-0.00930915
0.000423907
0.00248285
-0.00576614
0.00034113
0.00194483
-0.00106391
0.00028377
0.000832271
0.00515369
8.85037e-05
-0.000803076
0.0141377
-0.000360736
0.0258323
-0.000982854
0.000799746
-0.0111372
0.0004461
0.00106138
-0.0127308
0.00040347
0.00128802
-0.0116874
0.000280409
0.00141416
-0.00934278
0.000125322
0.00125341
-0.00557001
-1.82563e-05
0.00071214
-0.000471312
-3.40112e-05
-0.000172257
0.0061899
-4.94624e-05
-0.00120178
0.0152781
-0.000302681
0.0242062
-0.000831586
0.000472778
-0.0115708
0.000247519
0.000561154
-0.0127383
0.000209512
0.000643071
-0.0116834
0.000117629
0.000624506
-0.0092512
-1.50521e-05
0.000388854
-0.00529418
-0.000175319
-0.000124649
0.000100022
-0.000229901
-0.000849078
0.00704768
-0.000176508
-0.0014124
0.015951
-0.000289791
0.022483
-0.000712355
0.000214123
-0.0117583
0.000131499
0.000214369
-0.012691
0.000101642
0.000196524
-0.0116173
3.37807e-05
9.17722e-05
-0.00910295
-6.51713e-05
-0.000181593
-0.00497801
-0.000206639
-0.000696071
0.000662876
-0.000324404
-0.0013119
0.00776419
-0.000281517
-0.0015058
0.0162231
-0.000307451
0.0207226
-0.000617489
7.73655e-05
8.17343e-05
5.60912e-05
5.73622e-05
-1.67057e-05
3.20492e-06
-0.000176588
-7.26936e-05
-0.00048671
-0.000175529
-0.00100527
-0.000298058
-0.00144209
-0.000308733
-0.00131787
-0.000311814
-0.000481219
0.00448725
-0.00653025
-0.00264976
0.0116916
-0.0091845
-0.00258547
0.0158666
-0.0060027
-0.00243126
0.0185813
-0.00410717
-0.00196218
0.0208302
-0.00314115
-0.00127568
0.0232209
-0.00266405
-0.000327202
0.0261701
-0.00207419
0.00115847
0.0250367
0.00324599
0.00261278
0.0266613
0.00318515
0.00323253
-0.00847154
0.0013252
0.00495479
-0.0100743
0.000768193
0.00811209
-0.00866805
0.000236003
0.0109097
-0.00657336
2.53853e-05
0.0126535
-0.00466975
9.85858e-06
0.0128832
-0.00271499
0.000163379
0.0107499
0.000326114
0.00052144
0.00607982
0.00811864
0.00093736
0.0326111
0.00212435
0.0014148
-0.00980135
0.00108592
0.00356829
-0.0117954
0.00132257
0.00545462
-0.00982563
0.00125165
0.0070727
-0.00745236
0.0010083
0.00784715
-0.00485588
0.000718866
0.00718422
-0.0016809
0.000436152
0.00453358
0.00307249
0.000158942
0.000373937
0.0119134
-9.1676e-05
0.0320313
0.000401683
0.00108662
-0.0104577
0.000736342
0.00182931
-0.0121506
0.000723043
0.00289436
-0.0105777
0.000739034
0.00391232
-0.00814719
0.000720267
0.0043066
-0.00492992
0.00058173
0.00369077
-0.00080529
0.000355161
0.00189625
0.00496933
5.25178e-05
-0.000763685
0.0143301
-0.000268237
0.0303674
-0.000224096
0.0010571
-0.0112916
0.000464483
0.00158706
-0.012438
0.000441088
0.00205585
-0.0108688
0.000364749
0.00240414
-0.00837535
0.000304537
0.00235004
-0.00478148
0.000246962
0.00172399
-5.89465e-05
0.000163417
0.000500492
0.00628643
-5.2126e-06
-0.00108923
0.0157994
-0.000240483
0.0285683
-0.000273061
0.000762157
-0.011894
0.000288332
0.00100713
-0.0125317
0.000253589
0.00123638
-0.0109923
0.000175597
0.00132935
-0.00841838
7.59809e-05
0.00110748
-0.00456789
-9.73478e-06
0.000493599
0.000561502
-4.05828e-05
-0.000442328
0.00726388
-9.11198e-05
-0.00140456
0.016695
-0.000236214
0.0265942
-0.000262181
0.000452741
-0.0122582
0.000159574
0.000535823
-0.0125351
0.000130229
0.000606322
-0.0110112
6.65635e-05
0.000548591
-0.00834855
-2.67605e-05
0.000256434
-0.0043176
-0.000133265
-0.000309795
0.00107723
-0.000179402
-0.0010526
0.00800549
-0.000175427
-0.00156254
0.017162
-0.000247064
0.0245786
-0.000259489
0.000205879
-0.0124156
8.28268e-05
0.000202616
-0.012491
6.08833e-05
0.000174233
-0.010961
1.20915e-05
3.21124e-05
-0.00820996
-6.14842e-05
-0.000291429
-0.00403806
-0.000162574
-0.000831281
0.00153521
-0.000242549
-0.00144362
0.00857739
-0.000241165
-0.00159456
0.0172696
-0.000264209
0.0226175
-0.00025096
7.48031e-05
5.34202e-05
5.24577e-05
3.38665e-05
-3.1325e-05
-6.44768e-06
-0.000219061
-6.46003e-05
-0.000557257
-0.000142859
-0.00105619
-0.00022395
-0.00149271
-0.000247174
-0.00135077
-0.000251511
-0.00021542
0.00445901
-0.00630771
-0.000800769
0.0120066
-0.00931503
-0.00081695
0.0161917
-0.005843
-0.000773314
0.0188185
-0.00395988
-0.000629909
0.0210251
-0.00307486
-0.000408194
0.0234824
-0.00268914
-9.56916e-05
0.0263912
-0.00212905
0.000378831
0.0246229
0.00354556
0.000835974
0.0267326
0.0010761
0.00408622
-0.00946147
0.000403303
0.00558914
-0.0102914
0.000243725
0.00858598
-0.00866862
6.51393e-05
0.0111969
-0.00653804
-7.70348e-06
0.0127529
-0.00461392
-7.53422e-06
0.0127698
-0.00259606
5.31341e-05
0.0103375
0.000641775
0.000182963
0.00547059
0.00899672
0.000353504
0.033485
0.000842762
0.00163853
-0.0104143
0.000412961
0.00397831
-0.0117865
0.000481589
0.0058396
-0.00969844
0.000421293
0.00728941
-0.00730304
0.000323664
0.00783903
-0.00467063
0.000225804
0.00690344
-0.00136146
0.000137002
0.00393333
0.00371396
5.69052e-05
-0.000446942
0.0132753
1.02713e-05
0.0331729
0.000267003
0.00104878
-0.0109432
0.000223183
0.0018733
-0.0121375
0.000252837
0.00298409
-0.0103336
0.000264835
0.00395275
-0.00780095
0.000249954
0.00420629
-0.00453775
0.000195362
0.00337882
-0.000292332
0.000113435
0.00132633
0.00580624
1.27301e-05
-0.00148096
0.0158877
-7.33461e-05
0.0314439
2.39442e-05
0.00102607
-0.0116541
0.00015226
0.00154339
-0.0123593
0.000147315
0.00199779
-0.0105495
0.000127329
0.00230131
-0.00790839
0.000108946
0.00216397
-0.00424016
8.68597e-05
0.00139801
0.000586355
5.06702e-05
-6.60951e-06
0.00721636
-1.07444e-05
-0.00162893
0.0173462
-7.66796e-05
0.0295602
-1.83235e-05
0.000734662
-0.0121928
9.36651e-05
0.000962784
-0.012417
8.39068e-05
0.00116968
-0.0106386
5.83531e-05
0.00121237
-0.00789894
2.42072e-05
0.000910121
-0.00394275
-4.74753e-06
0.000186091
0.00128905
-1.92341e-05
-0.00087892
0.00823162
-4.14081e-05
-0.00183015
0.0181439
-8.27321e-05
0.0274991
-3.13195e-05
0.000433354
-0.0125186
5.18741e-05
0.000501951
-0.0123975
4.22355e-05
0.000548843
-0.0106387
1.99689e-05
0.000445484
-0.00780837
-1.37686e-05
8.41101e-05
-0.00366329
-5.12355e-05
-0.000571213
0.00183394
-6.8939e-05
-0.00140874
0.00896538
-7.16982e-05
-0.00190394
0.018483
-9.10201e-05
0.0253797
-4.41035e-05
0.000193616
-0.0126551
2.54578e-05
0.000180056
-0.0123414
1.83082e-05
0.000131859
-0.0105792
7.82368e-07
-4.94111e-05
-0.00766196
-2.65312e-05
-0.000433043
-0.0033791
-6.30749e-05
-0.00103828
0.0022881
-9.14643e-05
-0.00171773
0.00949813
-9.44877e-05
-0.00185681
0.018456
-9.81831e-05
0.0233221
-5.01766e-05
6.7852e-05
1.82283e-05
3.71316e-05
1.06623e-05
-6.2789e-05
-4.5383e-06
-0.000280571
-2.66035e-05
-0.000663598
-5.58693e-05
-0.00119866
-8.5045e-05
-0.00167861
-9.47556e-05
-0.00153957
-9.07962e-05
-4.50917e-05
0.0044533
-0.00620459
0.0009842
0.0121202
-0.00935957
0.000875484
0.0163131
-0.00578749
0.000820383
0.0189183
-0.0038994
0.000663916
0.021114
-0.00303971
0.000435566
0.0235838
-0.00268469
0.000119159
0.0264528
-0.00213206
-0.000358139
0.0244767
0.00363246
-0.000820034
0.0266249
-0.00107197
0.00432923
-0.00974701
-0.000380194
0.005772
-0.0103515
-0.000206454
0.00873034
-0.0086573
-2.42985e-05
0.0112885
-0.00650389
3.82121e-05
0.012785
-0.0045749
3.10154e-05
0.0127295
-0.00254199
-3.40889e-05
0.0101962
0.000751603
-0.000167417
0.00525858
0.00926562
-0.000341834
0.0335633
-0.000836931
0.00172891
-0.0105765
-0.000483839
0.00412295
-0.0117996
-0.000463905
0.00596194
-0.00968232
-0.000393387
0.00735142
-0.0072642
-0.000305809
0.0078219
-0.00460756
-0.000212078
0.00678894
-0.00124654
-0.000125523
0.00370551
0.0039395
-4.75313e-05
-0.00075073
0.0137358
-3.54131e-06
0.0333437
-0.000264119
0.00104874
-0.011085
-0.000312899
0.0019011
-0.0121354
-0.000263577
0.00301889
-0.0102716
-0.000264026
0.00395926
-0.00770251
-0.000252143
0.00415494
-0.00441281
-0.000195068
0.00324454
-0.000111854
-0.000110841
0.00109347
0.00611226
-8.92889e-06
-0.00176013
0.016439
7.69981e-05
0.0316298
-2.22618e-05
0.00101813
-0.0117588
-0.000190615
0.00152679
-0.0123295
-0.000167114
0.00197193
-0.0104515
-0.000138055
0.00225563
-0.00775901
-0.000118236
0.00208171
-0.00405866
-9.33488e-05
0.00125643
0.000818099
-5.3987e-05
-0.000220631
0.00756819
1.039e-05
-0.00184801
0.0179117
7.79574e-05
0.0297442
1.92585e-05
0.000723299
-0.0122772
-0.000111362
0.000944761
-0.0123734
-9.38726e-05
0.00113959
-0.0105221
-6.59715e-05
0.00116029
-0.00772308
-3.24061e-05
0.000823275
-0.0037233
-3.04428e-06
5.14437e-05
0.00155735
1.33666e-05
-0.00106838
0.008608
3.85903e-05
-0.00200866
0.018687
8.22126e-05
0.0276726
3.16047e-05
0.000425006
-0.0125885
-6.22326e-05
0.000486987
-0.0123442
-4.91804e-05
0.000523044
-0.0105122
-2.60551e-05
0.000399854
-0.00762093
7.27399e-06
7.45546e-06
-0.00342645
4.43427e-05
-0.000689099
0.00212214
6.28295e-05
-0.00157073
0.00935008
6.78387e-05
-0.00205334
0.0189892
8.93589e-05
0.0255312
4.38718e-05
0.000188128
-0.0127176
-3.40586e-05
0.000169813
-0.0122833
-2.45666e-05
0.000112525
-0.0104478
-6.3992e-06
-8.60329e-05
-0.00746986
2.09234e-05
-0.000496881
-0.00313604
5.73445e-05
-0.00113639
0.00258398
8.62e-05
-0.00185102
0.00987967
9.05445e-05
-0.00197886
0.0189229
9.59699e-05
0.0234525
4.96289e-05
6.38026e-05
-1.84596e-05
2.91856e-05
-1.2094e-05
-7.82026e-05
2.29976e-06
-0.000309543
2.36595e-05
-0.0007139
5.23297e-05
-0.00127304
8.0997e-05
-0.00177899
9.13006e-05
-0.00163565
8.84685e-05
4.44046e-05
0.00439574
-0.00639378
0.00302447
0.0119999
-0.0094099
0.00269427
0.0161895
-0.00586027
0.00248855
0.0188183
-0.0039623
0.00199586
0.0210257
-0.0030734
0.00130053
0.0234834
-0.00268729
0.000348278
0.0263914
-0.00212698
-0.00113937
0.0246218
0.00354868
-0.00259932
0.0267357
-0.00318608
0.00414384
-0.00948769
-0.00143177
0.00559784
-0.0103574
-0.00071584
0.008584
-0.00869446
-0.000177323
0.0111938
-0.0065431
8.51869e-06
0.0127513
-0.0046129
1.29397e-05
0.0127688
-0.00259337
-0.000145614
0.0103362
0.000645441
-0.000507193
0.00546891
0.00900204
-0.000927939
0.0334907
-0.00212302
0.00167756
-0.0103472
-0.00131317
0.00400222
-0.0117923
-0.00136185
0.00584628
-0.00970649
-0.00122705
0.00728869
-0.00730295
-0.000988563
0.00783681
-0.00466899
-0.000704089
0.00690128
-0.00135839
-0.000424969
0.00393116
0.00371824
-0.000150231
-0.00044918
0.0132817
9.71507e-05
0.033179
-0.000401697
0.00104971
-0.010884
-0.000827894
0.00188532
-0.0121229
-0.000772905
0.00299365
-0.0103289
-0.000752713
0.00395447
-0.00779465
-0.000722247
0.00420503
-0.00453345
-0.000581416
0.00337703
-0.00028829
-0.000353013
0.0013243
0.00581112
-4.90908e-05
-0.00148313
0.0158949
0.000271221
0.0314498
0.000223806
0.00103752
-0.0116249
-0.000489585
0.00155044
-0.0123463
-0.000459069
0.00200031
-0.0105435
-0.000374868
0.00230156
-0.00790179
-0.000313144
0.00216319
-0.00423522
-0.00025347
0.00139674
0.000591083
-0.000167013
-8.30076e-06
0.00722185
4.68445e-06
-0.00163066
0.0173538
0.0002414
0.0295659
0.000272498
0.000736063
-0.0121713
-0.000302706
0.000965377
-0.012406
-0.000264694
0.00117054
-0.0106318
-0.000183609
0.00121284
-0.00789342
-8.34804e-05
0.000909822
-0.00393796
2.52258e-06
0.000185237
0.00129406
3.49147e-05
-0.000880244
0.00823752
8.839e-05
-0.00183145
0.0181516
0.000235577
0.0275047
0.000261326
0.000435174
-0.0125011
-0.000169112
0.000503705
-0.0123872
-0.000137449
0.000549862
-0.0106322
-7.24123e-05
0.000446155
-0.00780366
2.0935e-05
8.41837e-05
-0.0036589
0.000127128
-0.00057172
0.00183895
0.000173805
-0.00140972
0.00897146
0.000171888
-0.00190491
0.0184907
0.000245467
0.0253853
0.000258392
0.00019486
-0.0126399
-9.11632e-05
0.0001815
-0.0123319
-6.70082e-05
0.000133064
-0.010573
-1.75028e-05
-4.85129e-05
-0.00765765
5.63336e-05
-0.000432633
-0.00337497
0.000157482
-0.00103857
0.00229322
0.000237871
-0.0017185
0.00950426
0.000237683
-0.00185758
0.0184636
0.000262167
0.0233276
0.000249754
6.83867e-05
-5.38026e-05
3.78297e-05
-3.53349e-05
-6.21789e-05
4.33339e-06
-0.000280135
6.19301e-05
-0.000663341
0.000139734
-0.00119896
0.000220376
-0.00167926
0.000244162
-0.00154021
0.000249356
0.000214267
0.00422321
-0.00628855
0.00511852
0.0116532
-0.00949587
0.00478581
0.0158616
-0.00601935
0.00431446
0.0185846
-0.0041061
0.00337697
0.0208348
-0.00313443
0.0021833
0.0232261
-0.00265888
0.000614082
0.0261716
-0.00206868
-0.0020172
0.0250367
0.00325267
-0.00471805
0.0266674
-0.00481775
0.00358645
-0.00821246
-0.00305834
0.00492154
-0.0101793
-0.00135917
0.00808467
-0.00872479
-0.000630482
0.0108953
-0.00658675
-0.00031715
0.0126488
-0.00466735
-0.000206659
0.0128816
-0.00270914
-0.000327948
0.0107484
0.000334024
-0.000776859
0.00607827
0.00812863
-0.00113413
0.0326217
-0.00199966
0.00166179
-0.00965391
-0.00158302
0.003626
-0.0117136
-0.00180701
0.00544718
-0.00984285
-0.00192844
0.00706003
-0.00745694
-0.00172772
0.00783936
-0.00485484
-0.00129383
0.00717944
-0.00167526
-0.000798023
0.00453032
0.00308067
-0.000247433
0.00037123
0.0119247
0.000460147
0.0320429
0.000548204
0.00114295
-0.0103815
-0.00128032
0.00187787
-0.0120877
-0.00114582
0.00290596
-0.0105642
-0.00106169
0.00391082
-0.00813755
-0.00104629
0.00430257
-0.00492386
-0.00090348
0.00368744
-0.000798096
-0.000614626
0.00189343
0.00497815
-0.000152346
-0.000766394
0.0143425
0.000513314
0.0303786
0.00112162
0.00106162
-0.0112315
-0.000705838
0.00160248
-0.0124021
-0.000689082
0.00206258
-0.0108536
-0.000548096
0.00240528
-0.00836352
-0.00043088
0.00234888
-0.00477355
-0.000347661
0.00172227
-5.05753e-05
-0.000287834
0.000498415
0.00629603
-8.92546e-05
-0.00109129
0.0158124
0.000361173
0.028579
0.000980732
0.000766551
-0.0118435
-0.000458424
0.00101314
-0.0125051
-0.00040956
0.00123895
-0.0109781
-0.00028597
0.00133102
-0.00840876
-0.000130982
0.00110773
-0.00456012
1.2188e-05
0.000492875
0.000570099
2.90795e-05
-0.000443691
0.00727393
4.70897e-05
-0.00140592
0.0167081
0.000302072
0.0266048
0.000829571
0.000456478
-0.012214
-0.000255992
0.000540056
-0.0125109
-0.000216094
0.000608964
-0.0109979
-0.000122167
0.000550521
-0.00834037
1.06118e-05
0.000257341
-0.00431061
0.000170645
-0.000309856
0.00108554
0.000225545
-0.00105337
0.00801559
0.000173745
-0.00156341
0.0171751
0.000288537
0.0245894
0.000710475
0.000208098
-0.0123759
-0.000138317
0.000205845
-0.0124691
-0.000107125
0.000177086
-0.0109483
-3.8728e-05
3.4367e-05
-0.00820248
6.0953e-05
-0.000289976
-0.00403163
0.000202766
-0.000831025
0.00154358
0.000320897
-0.00144411
0.00858737
0.000279002
-0.00159519
0.0172825
0.000305936
0.0226281
0.000615764
7.6316e-05
-8.25011e-05
5.41115e-05
-5.87364e-05
-2.98388e-05
-5.02099e-06
-0.000217889
7.05616e-05
-0.000556191
0.000173139
-0.00105607
0.000295301
-0.00149317
0.000306588
-0.00135132
0.000310141
0.000479828
0.00382207
-0.0045817
0.00614354
0.011192
-0.00898664
0.0064849
0.0155299
-0.00559906
0.00558626
0.018531
-0.00384722
0.0042295
0.0209068
-0.00287824
0.00268385
0.0231391
-0.00238387
0.00076339
0.0255698
-0.00186623
-0.00258391
0.0253419
0.00216359
-0.00665589
0.0244683
-0.00394613
0.0019626
-0.00473539
-0.00487087
0.00315604
-0.00926658
-0.00227373
0.00700335
-0.00812875
-0.00192826
0.0102842
-0.00615338
-0.00128009
0.0123978
-0.00438987
-0.000803228
0.012963
-0.00267033
-0.00060521
0.0111969
-0.000140359
-0.000736642
0.00663359
0.00628277
-0.000691132
0.028727
0.000374392
0.0017459
-0.00753931
-0.000670899
0.00296224
-0.0112706
-0.00103854
0.00475899
-0.0102206
-0.00162222
0.00657066
-0.00795415
-0.0017284
0.00763326
-0.00530946
-0.00143115
0.00731332
-0.00221544
-0.000930493
0.00505686
0.00212733
-0.000257833
0.00114827
0.00987408
0.000777395
0.0282901
0.00213302
0.00133088
-0.00905195
-0.00114795
0.00197522
-0.0119939
-0.00107942
0.00287869
-0.011191
-0.000997404
0.00383621
-0.00897984
-0.000976526
0.0042987
-0.00576708
-0.000906595
0.00385908
-0.0016585
-0.000730684
0.00229913
0.00386292
-0.000327313
-0.000246741
0.0124214
0.000511877
0.027207
0.00195793
0.00112852
-0.0102517
-0.000647032
0.00167672
-0.0125216
-0.000717112
0.00212662
-0.0115559
-0.00063704
0.00248928
-0.00929823
-0.000476782
0.00248312
-0.00575827
-0.000350348
0.00194434
-0.00105418
-0.000353056
0.000832309
0.00516505
-0.000279084
-0.000802514
0.0141516
0.000265916
0.0258439
0.00154134
0.000811038
-0.0110386
-0.000485216
0.00106898
-0.0126848
-0.000506743
0.00129281
-0.0116688
-0.000399094
0.00141813
-0.00933313
-0.000222456
0.00125549
-0.00556278
-2.10726e-05
0.000713024
-0.000461883
-2.07465e-05
-0.000171429
0.00620088
-0.000104228
-0.00120087
0.0152921
0.000191043
0.0242192
0.00125341
0.00047985
-0.0114824
-0.000293421
0.000569583
-0.0126946
-0.000297335
0.000648062
-0.0116646
-0.000205832
0.000628446
-0.00924254
-6.10394e-05
0.0003917
-0.00528809
0.000132395
-0.000122991
0.000108545
0.00016974
-0.000847726
0.00705802
4.13277e-05
-0.00141132
0.0159651
0.000179104
0.022497
0.00102128
0.000218536
-0.0116771
-0.000162941
0.000220109
-0.0126506
-0.000153355
0.000201802
-0.011598
-8.75236e-05
9.61282e-05
-0.0090949
1.86703e-05
-0.000178079
-0.00497285
0.000161633
-0.000694101
0.000671333
0.000274095
-0.00131048
0.00777405
0.000179392
-0.00150488
0.0162372
0.000228227
0.0207374
0.000870582
7.94829e-05
-8.93504e-05
5.8813e-05
-7.17967e-05
-1.40976e-05
-2.18965e-05
-0.00017432
4.90496e-05
-0.00048392
0.000144735
-0.00100374
0.000290916
-0.00144115
0.000270765
-0.00131724
0.000320431
0.000687957
0.00328916
0.00295805
0.0126863
-0.00289672
0.0170913
0.00120084
0.0205978
0.000730271
0.0228555
0.000428241
0.0240802
-0.000461933
0.0232637
-0.00176888
0.0196672
-0.00306146
0.0157202
-0.00141604
-0.000570893
-0.000426189
-0.00615479
0.00422858
-0.00536244
0.00788241
-0.0041906
0.0106136
-0.00310016
0.011608
-0.00205941
0.00989236
-0.000789911
0.00341559
0.00272331
0.0195099
0.0012184
-0.00252771
0.00161141
-0.00758789
0.00325051
-0.00861503
0.00496354
-0.00762451
0.00614383
-0.00570732
0.00609147
-0.0029354
0.00401451
0.00102999
-0.000555551
0.00807057
0.0210874
0.00112721
-0.00483262
0.0018775
-0.00942569
0.00266287
-0.010399
0.00351166
-0.00944892
0.00386532
-0.00696609
0.00330003
-0.00309962
0.001484
0.00251923
-0.00179142
0.011858
0.0212539
0.000972417
-0.00646249
0.0015338
-0.010709
0.00201435
-0.0115191
0.0024496
-0.0103616
0.00249029
-0.00735701
0.00179558
-0.00275753
4.8134e-05
0.00398787
-0.00222348
0.0143955
0.0205717
0.000742486
-0.00769318
0.00102966
-0.0115052
0.00126917
-0.012159
0.00144199
-0.0107575
0.00130994
-0.00724621
0.000599787
-0.00206806
-0.0010344
0.00551786
-0.00237374
0.0159259
0.0194514
0.00043967
-0.00842742
0.000546516
-0.0119102
0.000635831
-0.0124548
0.000653862
-0.010837
0.000418245
-0.00687834
-0.000329194
-0.00115091
-0.00173513
0.00696516
-0.00236918
0.016739
0.0181035
0.000189198
-0.00878001
0.00019
-0.0120648
0.000178098
-0.0125308
0.000101163
-0.0107416
-0.00017226
-0.00644334
-0.0010013
-4.77303e-05
-0.00217421
0.00831747
-0.00229459
0.0170877
0.0166795
5.69351e-05
2.2969e-05
-4.41903e-05
-0.000184551
-0.000532523
-0.00147011
-0.00219196
-0.00191906
)
;

boundaryField
{
    inlet
    {
        type            calculated;
        value           uniform 0;
    }
    outlet
    {
        type            calculated;
        value           nonuniform List<scalar> 
81
(
-0.00905395
-0.011829
-0.0124621
-0.0126877
-0.0127447
-0.0126729
-0.0124236
-0.0117498
-0.00892631
-0.0121734
-0.0126564
-0.0124451
-0.0122875
-0.0122259
-0.0122782
-0.0124236
-0.0126169
-0.0121026
-0.0125157
-0.0115268
-0.0108675
-0.0104811
-0.0103473
-0.010475
-0.0108551
-0.0115082
-0.0124855
-0.0105548
-0.00892081
-0.00803031
-0.00748217
-0.00728878
-0.00747798
-0.00802308
-0.00891318
-0.0105522
-0.0059431
-0.00463864
-0.00373253
-0.00308305
-0.00283988
-0.00307917
-0.00372673
-0.00463485
-0.00595063
0.00117213
0.00118667
0.00196002
0.00268426
0.00297707
0.00268946
0.00196853
0.00119556
0.00118078
0.00930628
0.00823776
0.00895233
0.00982565
0.0101996
0.00983171
0.00896207
0.00824729
0.0093101
0.0171194
0.0160892
0.0170673
0.0181562
0.0186003
0.0181637
0.0170798
0.016103
0.0171352
0.0154258
0.0191975
0.0210009
0.0216122
0.0217274
0.0216175
0.0210113
0.019212
0.0154484
)
;
    }
    lowerWall
    {
        type            calculated;
        value           uniform 0;
    }
    upperWall
    {
        type            calculated;
        value           uniform 0;
    }
}


// ************************************************************************* //
