/*--------------------------------*- C++ -*----------------------------------*\
  =========                 |
  \\      /  F ield         | OpenFOAM: The Open Source CFD Toolbox
   \\    /   O peration     | Website:  https://openfoam.org
    \\  /    A nd           | Version:  11
     \\/     M anipulation  |
\*---------------------------------------------------------------------------*/
FoamFile
{
    format      ascii;
    class       volScalarField::Internal;
    location    "800";
    object      tmp<kEpsilon:G>;
}
// * * * * * * * * * * * * * * * * * * * * * * * * * * * * * * * * * * * * * //

dimensions      [0 2 -3 0 0 0 0];

value           nonuniform List<scalar> 
729
(
4.3127
8.2094
10.7792
12.7487
14.7392
15.3174
15.198
9.38127
10.5009
0.383313
0.761446
0.796427
1.57561
2.58077
3.39088
3.49222
1.9019
3.97731
0.0118759
0.0754692
0.140196
0.302959
0.550609
0.796721
0.846551
0.905354
3.2496
0.00581055
0.0209484
0.0460019
0.0678771
0.137016
0.213816
0.285415
1.16762
2.50106
0.00840498
0.0279297
0.0509086
0.0689617
0.0924709
0.0972281
0.187253
1.10975
1.8244
0.0107872
0.03293
0.0624716
0.0828552
0.0855054
0.0548889
0.19155
0.971608
1.32543
0.0122167
0.0373647
0.065709
0.0863424
0.0819985
0.0301355
0.210665
0.809599
0.944306
0.0130021
0.0385521
0.0686752
0.0888104
0.0764235
0.0136509
0.229481
0.701831
0.717131
0.013319
0.0391256
0.0686005
0.0876534
0.0707416
0.0217109
0.227035
0.525518
0.45708
13.1403
860.828
1099.46
1251.27
1321.31
1304.44
1134.36
893.657
35.0451
0.616292
5.40509
4.80069
5.57088
6.02901
6.81833
7.42622
3.45012
14.9807
0.0501074
0.477057
1.001
1.18197
0.651616
0.159723
2.37517
12.7478
9.29699
0.0200678
0.0842057
0.0177888
0.0582024
0.0460774
0.247451
2.2132
9.16894
6.24271
0.0280384
0.0328563
0.0209365
0.0738221
0.176913
0.611645
2.19934
5.43107
4.13554
0.0309871
0.0158742
0.020615
0.108258
0.313266
0.815597
2.07574
3.20079
2.78922
0.0343209
0.00584251
0.0303805
0.159648
0.426643
0.946799
1.92801
1.94123
1.89966
0.0353605
0.00141348
0.045033
0.214031
0.53433
1.04143
1.79106
1.27193
1.39523
0.0358404
0.000399863
0.06213
0.268716
0.651417
1.14524
1.53511
0.682334
0.870872
15.384
1008.58
1301.02
1532.76
1657.32
1657.18
1431.13
1095.29
47.6452
0.648765
7.83977
5.88576
6.28464
6.72719
8.07806
8.75768
5.30657
21.5328
0.0912248
0.694606
1.23705
1.25919
0.556147
0.351234
4.70051
20.0534
13.433
0.0351663
0.0147424
0.0282941
0.0699578
0.0602079
0.48992
3.86561
14.3125
8.98907
0.0443938
0.0123768
0.0535704
0.0969388
0.239185
0.871453
3.33329
8.30002
5.85637
0.0479785
0.00359428
0.0482303
0.150372
0.404393
1.1019
2.9402
4.75278
3.86478
0.0513122
0.00166614
0.0636923
0.213196
0.547563
1.23353
2.62379
2.85212
2.58997
0.0525219
0.00381474
0.0827782
0.282522
0.675954
1.33505
2.37931
1.87688
1.87625
0.0529898
0.00809971
0.107232
0.352592
0.807075
1.43864
2.01025
1.04001
1.16439
16.4692
1057.47
1374.94
1646.12
1800.56
1810.52
1560.15
1174.21
52.1337
0.664865
8.31982
5.7133
6.36779
7.29423
9.43672
10.5567
5.53772
23.738
0.118441
0.944167
1.51669
1.33345
0.487322
0.537756
6.57146
23.6326
15.0943
0.0446517
0.0174638
0.0434362
0.087012
0.0757365
0.738836
5.33756
16.4398
10.253
0.05336
0.0132352
0.063792
0.108111
0.296555
1.14218
4.3797
9.32152
6.70206
0.058246
0.00451216
0.0644636
0.178113
0.486191
1.36772
3.70688
5.2028
4.40703
0.061002
0.00579236
0.0863854
0.255288
0.639751
1.47675
3.19966
3.05898
2.94077
0.0628043
0.0110871
0.109811
0.332741
0.775043
1.55934
2.82132
1.99516
2.12019
0.0630533
0.0181042
0.138403
0.411209
0.911109
1.63846
2.31328
1.07975
1.30957
16.9538
1066.92
1393.94
1677.41
1841.32
1854.41
1597.19
1196.11
53.304
0.679516
8.43712
5.57357
6.32441
7.47658
9.95948
11.281
5.45892
24.2076
0.127246
1.03837
1.61121
1.35234
0.460159
0.618554
7.28144
24.5083
15.4762
0.0483032
0.0179195
0.049136
0.0929073
0.0833475
0.84098
5.89708
16.8715
10.5795
0.0563014
0.0144248
0.0665336
0.113531
0.321901
1.2548
4.77876
9.45899
6.93233
0.06169
0.00561581
0.0714336
0.189639
0.520139
1.47631
3.99257
5.2125
4.55696
0.0643405
0.00804346
0.0947804
0.27104
0.675856
1.57441
3.4058
3.0297
3.03788
0.0661472
0.0143942
0.119976
0.351927
0.812434
1.64672
2.97269
1.962
2.18728
0.0663876
0.022267
0.14971
0.43267
0.949713
1.71365
2.40977
1.04479
1.34941
16.53
1058.12
1374.07
1646.05
1800.73
1810.72
1560.34
1174.34
52.1422
0.665529
8.31341
5.64446
6.35101
7.29444
9.44189
10.5608
5.53943
23.7455
0.114409
0.868162
1.49964
1.32483
0.486029
0.53813
6.5756
23.6401
15.1002
0.0426093
0.00572027
0.040816
0.0867424
0.0759219
0.740281
5.34243
16.445
10.2575
0.0531275
0.0139476
0.0621326
0.108065
0.296698
1.14342
4.38347
9.32391
6.70525
0.058005
0.00446446
0.0639035
0.177818
0.486206
1.36857
3.70951
5.20367
4.40926
0.060843
0.00564721
0.0859198
0.254935
0.639698
1.47741
3.20149
3.05916
2.94234
0.0626346
0.010926
0.109464
0.332298
0.774849
1.55981
2.82261
1.9951
2.12138
0.0629033
0.0178844
0.137906
0.410675
0.911006
1.63895
2.31408
1.07957
1.31035
15.011
1020.5
1298.76
1533.05
1657.61
1657.43
1431.47
1095.32
47.6675
0.675249
8.32013
5.71599
6.28952
6.74222
8.09555
8.76639
5.30612
21.5498
0.0928698
0.687421
1.22328
1.2499
0.557103
0.350688
4.70357
20.0634
13.4452
0.0341863
0.0216224
0.0242477
0.0710459
0.0608378
0.492121
3.8721
14.3219
8.99757
0.0438073
0.0133888
0.0506046
0.0972225
0.239383
0.873861
3.33893
8.30557
5.86213
0.0478463
0.00371417
0.0470664
0.149681
0.404313
1.1033
2.9442
4.75558
3.86873
0.0506636
0.00156353
0.0627615
0.212546
0.54745
1.23459
2.62672
2.85349
2.59275
0.0523917
0.00354368
0.0819945
0.28162
0.675589
1.3358
2.38149
1.87764
1.87836
0.0526804
0.00771162
0.106199
0.351504
0.806882
1.43953
2.01176
1.04032
1.1658
11.425
903.806
1093.05
1251.92
1321.22
1304.18
1134.95
892.289
35.1051
0.673229
6.66864
4.43794
5.69123
6.07282
6.85998
7.44513
3.44003
15.0099
0.0578045
0.598638
0.976783
1.17812
0.657829
0.158679
2.37306
12.7435
9.31304
0.0190145
0.0896787
0.0154298
0.0565919
0.0476583
0.249704
2.21675
9.17322
6.25255
0.0269773
0.0351534
0.0192189
0.0731792
0.177819
0.614142
2.20363
5.43529
4.1418
0.0305212
0.0171476
0.0194043
0.107279
0.313042
0.816974
2.07885
3.20372
2.79348
0.0338581
0.00660825
0.0289983
0.158917
0.426699
0.947809
1.93045
1.94326
1.90265
0.0349307
0.00175546
0.0441378
0.212868
0.534052
1.04212
1.79297
1.27343
1.39755
0.0354179
0.000477209
0.0607461
0.267357
0.6514
1.14629
1.53658
0.68327
0.872458
2.92327
9.10291
10.6749
13.0178
14.8055
15.3918
15.2866
9.32037
10.6058
0.418926
0.521812
0.924111
1.51205
2.58776
3.3961
3.49921
1.90624
3.99936
0.0157546
0.0553192
0.155887
0.301772
0.551851
0.795593
0.847218
0.908927
3.25955
0.00524979
0.0214585
0.0464315
0.0686509
0.137524
0.214138
0.286859
1.17026
2.50653
0.00789116
0.0270028
0.050587
0.0690371
0.0925296
0.097293
0.188273
1.1116
1.82809
0.010422
0.0327303
0.0598017
0.0826854
0.0854943
0.0547945
0.192053
0.973091
1.32821
0.0118829
0.0367905
0.0664721
0.0864356
0.0819372
0.0300116
0.210919
0.81088
0.946469
0.0126742
0.0380994
0.0677569
0.0885249
0.0763929
0.0134421
0.229651
0.703042
0.718958
0.0129968
0.0386782
0.0682156
0.0874889
0.0707817
0.0216921
0.227198
0.5265
0.458399
)
;


// ************************************************************************* //
