/*--------------------------------*- C++ -*----------------------------------*\
  =========                 |
  \\      /  F ield         | OpenFOAM: The Open Source CFD Toolbox
   \\    /   O peration     | Website:  https://openfoam.org
    \\  /    A nd           | Version:  11
     \\/     M anipulation  |
\*---------------------------------------------------------------------------*/
FoamFile
{
    format      ascii;
    class       volVectorField;
    location    "800";
    object      U;
}
// * * * * * * * * * * * * * * * * * * * * * * * * * * * * * * * * * * * * * //

dimensions      [0 1 -1 0 0 0 0];

internalField   nonuniform List<vector> 
729
(
(1.09588 -2.797 -0.544397)
(0.840115 -1.90404 -0.562412)
(1.46442 -1.28707 -0.559062)
(1.88494 -0.7425 -0.447085)
(2.19173 -0.422707 -0.312299)
(2.35489 -0.236055 -0.150227)
(2.48931 -0.135154 0.131284)
(1.69782 -0.0156557 0.44426)
(3.22765 1.24433 0.333081)
(-0.602812 0.337832 0.154957)
(0.0405413 0.846209 0.323791)
(0.205014 0.418469 0.168158)
(0.633378 0.321359 0.136164)
(0.95156 0.176162 0.0973457)
(1.15602 0.0287727 0.0721987)
(1.1737 -0.144277 0.0731105)
(0.666346 -0.190405 0.0540335)
(0.346269 1.7558 0.0447902)
(-0.19803 -0.0924507 -0.09049)
(0.116758 -0.673183 0.0821579)
(0.21772 -0.778027 0.102294)
(0.409419 -0.705065 0.141146)
(0.566793 -0.544651 0.139195)
(0.639028 -0.333803 0.106958)
(0.584483 -0.041649 0.040466)
(0.20996 0.500394 -0.0821115)
(-0.233101 2.07112 -0.191903)
(0.0473079 -0.401662 0.0688681)
(0.144271 -0.865618 0.103632)
(0.212243 -0.964959 0.0774779)
(0.304244 -0.880778 0.0738039)
(0.374014 -0.658506 0.0770663)
(0.374396 -0.314028 0.0774741)
(0.30115 0.182406 0.0392087)
(-0.00782883 1.03896 -0.0855798)
(-0.310138 2.16704 -0.236671)
(0.0610441 -0.609587 0.0435731)
(0.124955 -1.04081 0.050751)
(0.17224 -1.11759 0.0433207)
(0.22089 -1.01186 0.0286696)
(0.249789 -0.73787 0.0214143)
(0.228146 -0.310393 0.0315234)
(0.141245 0.324553 0.0277867)
(-0.127921 1.3523 -0.0703458)
(-0.287868 2.11707 -0.209039)
(0.0490403 -0.736391 0.0339278)
(0.0876991 -1.13136 0.035621)
(0.112035 -1.19635 0.0266877)
(0.133514 -1.06545 0.0117884)
(0.138568 -0.738975 -0.00382875)
(0.108814 -0.249412 -0.000507928)
(0.0135859 0.47685 0.00913285)
(-0.203736 1.53795 -0.0628204)
(-0.253261 2.00831 -0.17627)
(0.0289255 -0.832133 0.0202238)
(0.0477742 -1.18677 0.019338)
(0.0571207 -1.2399 0.0128292)
(0.0625822 -1.08509 0.00172713)
(0.0552796 -0.70819 -0.0137674)
(0.0176663 -0.163719 -0.0171233)
(-0.0823367 0.63177 -0.00602364)
(-0.245895 1.64544 -0.0587742)
(-0.220457 1.8756 -0.147274)
(0.0129697 -0.881081 0.0115034)
(0.0179837 -1.2089 0.0104281)
(0.017279 -1.25316 0.00476786)
(0.0133281 -1.07634 -0.00331001)
(0.000399055 -0.65769 -0.0153434)
(-0.0475821 -0.0583164 -0.02616)
(-0.151027 0.764866 -0.0201124)
(-0.267363 1.70544 -0.0592482)
(-0.191085 1.75121 -0.126407)
(0.00583752 -0.901004 0.00781517)
(0.00443819 -1.21595 0.00637943)
(-0.000686668 -1.25305 0.00202526)
(-0.00921058 -1.06109 -0.00429662)
(-0.0266123 -0.608025 -0.0142245)
(-0.0958385 0.0899166 -0.0287489)
(-0.186836 0.917837 -0.0317171)
(-0.247238 1.70998 -0.0605471)
(-0.146071 1.55919 -0.100532)
(0.442746 -3.98227 -0.516422)
(0.834939 -2.76501 -0.500205)
(1.33719 -1.62956 -0.4657)
(1.72063 -0.942374 -0.365124)
(1.98612 -0.55511 -0.232504)
(2.20306 -0.298964 -0.0542997)
(2.44653 -0.0346883 0.249431)
(2.23328 0.71212 0.562995)
(3.79693 2.52357 0.490486)
(0.0466205 0.884294 0.38999)
(0.17205 0.188188 0.228241)
(0.518879 -0.0888168 0.111626)
(0.896697 -0.155342 0.0564252)
(1.16696 -0.184243 0.033628)
(1.30679 -0.201138 0.0422249)
(1.28971 -0.179213 0.0911247)
(0.834101 0.220669 0.124258)
(0.836469 2.67004 0.168935)
(-0.00304108 -0.889733 0.105499)
(0.21838 -1.21803 0.16795)
(0.371152 -1.04674 0.224628)
(0.575537 -0.795847 0.209118)
(0.736789 -0.549977 0.159113)
(0.783556 -0.290246 0.0977431)
(0.682161 0.0725578 0.0316011)
(0.278065 0.758218 -0.0603556)
(0.107613 2.7839 -0.120453)
(0.0837734 -0.821747 0.115949)
(0.156572 -1.15144 0.115089)
(0.229838 -1.0876 0.109958)
(0.334865 -0.86995 0.112292)
(0.422268 -0.568865 0.100654)
(0.433456 -0.195504 0.0706152)
(0.355176 0.315545 0.0203633)
(0.0641619 1.15097 -0.0606882)
(-0.0526857 2.8223 -0.173832)
(0.0702899 -1.0067 0.0694917)
(0.143001 -1.2515 0.0778908)
(0.187917 -1.1509 0.0651165)
(0.232178 -0.926899 0.0509692)
(0.257331 -0.58494 0.0390735)
(0.236546 -0.136028 0.0334285)
(0.170932 0.462388 0.0153551)
(-0.0407299 1.35688 -0.0324473)
(-0.0809137 2.69252 -0.139223)
(0.0514326 -1.08215 0.048484)
(0.0948435 -1.26884 0.0490591)
(0.116953 -1.16454 0.0372627)
(0.137335 -0.934572 0.0196605)
(0.140881 -0.56729 0.00102575)
(0.108289 -0.0753561 -0.000791318)
(0.0482193 0.572867 0.00178214)
(-0.112899 1.48504 -0.0177216)
(-0.0899785 2.50898 -0.106332)
(0.0293855 -1.14312 0.0274648)
(0.0525382 -1.2749 0.0267128)
(0.0600187 -1.16975 0.017503)
(0.0654629 -0.930784 0.00257465)
(0.0563231 -0.544443 -0.016322)
(0.0210086 -0.0176702 -0.0213326)
(-0.0358215 0.665946 -0.0107415)
(-0.156821 1.56953 -0.0126179)
(-0.0963139 2.32795 -0.0834089)
(0.0137953 -1.17004 0.0148678)
(0.0219277 -1.26982 0.0131296)
(0.0211786 -1.1633 0.00625164)
(0.0164858 -0.914853 -0.00459038)
(0.00021413 -0.509999 -0.0196984)
(-0.0372946 0.0412558 -0.0318078)
(-0.0951353 0.745874 -0.0220325)
(-0.182664 1.62379 -0.0141147)
(-0.099214 2.17571 -0.0683404)
(0.00683744 -1.18059 0.00940845)
(0.0080048 -1.26563 0.00718064)
(0.00337212 -1.15493 0.00158185)
(-0.00674672 -0.897199 -0.00635356)
(-0.0283498 -0.472666 -0.0164685)
(-0.070463 0.107394 -0.0295439)
(-0.123561 0.817048 -0.0269173)
(-0.174187 1.61505 -0.019774)
(-0.0883584 1.94225 -0.0515435)
(0.427241 -4.0181 -0.359372)
(0.878869 -2.89409 -0.363949)
(1.3763 -1.66616 -0.337452)
(1.7407 -0.958561 -0.267434)
(1.98354 -0.573609 -0.17285)
(2.2073 -0.325748 -0.0455205)
(2.44586 -0.0370767 0.158131)
(2.33034 0.913032 0.370021)
(3.73397 2.94611 0.410412)
(0.319597 0.753179 0.208079)
(0.325764 0.0407212 0.107468)
(0.644181 -0.187616 0.0364208)
(0.976982 -0.238593 0.00938098)
(1.20822 -0.245975 0.00556393)
(1.31622 -0.239929 0.0230394)
(1.25897 -0.178299 0.0677064)
(0.788574 0.353224 0.119559)
(0.794772 2.97922 0.24531)
(0.0339323 -1.17538 0.130969)
(0.267618 -1.31144 0.169322)
(0.446326 -1.04573 0.162336)
(0.637729 -0.778384 0.132785)
(0.77155 -0.52911 0.0952053)
(0.788317 -0.254523 0.0580512)
(0.649885 0.150249 0.0210747)
(0.204353 0.941 -0.0151469)
(0.0582308 3.12237 0.0309701)
(0.0824329 -0.943889 0.0975702)
(0.142525 -1.16674 0.0947252)
(0.226713 -1.02516 0.092709)
(0.344984 -0.790396 0.0910898)
(0.430166 -0.495306 0.0749062)
(0.426602 -0.119755 0.0473539)
(0.327644 0.425288 0.00929331)
(0.00931175 1.36223 -0.0340569)
(-0.0947275 3.17354 -0.0423912)
(0.066569 -1.11292 0.0586826)
(0.136284 -1.24703 0.0564225)
(0.181781 -1.083 0.0453843)
(0.226975 -0.835061 0.0366676)
(0.248243 -0.48746 0.0300225)
(0.218883 -0.0374142 0.021622)
(0.142716 0.579078 0.00191596)
(-0.0758884 1.54079 -0.029472)
(-0.10761 3.00188 -0.0478725)
(0.0481736 -1.16219 0.0370483)
(0.0905466 -1.24871 0.0327067)
(0.111934 -1.0938 0.0222148)
(0.132752 -0.841569 0.0092098)
(0.130506 -0.467989 -0.00200119)
(0.0888924 0.0285255 -0.00480955)
(0.0213739 0.684719 -0.00976778)
(-0.137937 1.63748 -0.0291834)
(-0.106577 2.76529 -0.0461863)
(0.0274221 -1.21423 0.0205041)
(0.0508728 -1.25488 0.0168569)
(0.0574556 -1.10197 0.00860808)
(0.0611421 -0.840296 -0.00312894)
(0.0471102 -0.445137 -0.0166564)
(0.00377323 0.0841156 -0.0220635)
(-0.0576956 0.768214 -0.0209924)
(-0.175141 1.69923 -0.0312996)
(-0.107489 2.54744 -0.0451426)
(0.0127664 -1.23661 0.0107661)
(0.0214051 -1.24986 0.00801585)
(0.01988 -1.0975 0.00181598)
(0.0132853 -0.826012 -0.0072874)
(-0.0077719 -0.415202 -0.0199679)
(-0.0504862 0.13422 -0.0300599)
(-0.109836 0.835726 -0.0299605)
(-0.194213 1.73656 -0.0345293)
(-0.106287 2.37352 -0.0435861)
(0.00631784 -1.2449 0.00690292)
(0.00798973 -1.2452 0.00443067)
(0.00280541 -1.08944 -0.000656788)
(-0.00931481 -0.808082 -0.00786003)
(-0.0346427 -0.381386 -0.0176664)
(-0.0767233 0.185528 -0.0281545)
(-0.12873 0.888028 -0.0314584)
(-0.178385 1.71152 -0.034163)
(-0.0918542 2.12274 -0.0373505)
(0.440817 -4.0591 -0.171877)
(0.9111 -2.9292 -0.171863)
(1.40965 -1.66219 -0.160615)
(1.76845 -0.948922 -0.129977)
(2.00383 -0.571025 -0.0845524)
(2.22993 -0.332194 -0.0211736)
(2.46275 -0.0361351 0.0759262)
(2.35826 0.975282 0.172654)
(3.66866 3.07324 0.212697)
(0.387108 0.667004 0.0805523)
(0.393964 0.0119798 0.0470426)
(0.703742 -0.192116 0.0126278)
(1.01615 -0.241237 -0.00162263)
(1.22749 -0.248508 -0.0018743)
(1.31663 -0.241567 0.00995671)
(1.23199 -0.171249 0.0356313)
(0.744728 0.40183 0.0687781)
(0.724646 3.02741 0.159366)
(0.0458505 -1.23976 0.0816704)
(0.296313 -1.31075 0.0935098)
(0.492341 -1.03154 0.0827426)
(0.670704 -0.764901 0.0641053)
(0.782837 -0.514388 0.0448521)
(0.775056 -0.230068 0.0271914)
(0.606616 0.199351 0.0112385)
(0.130906 1.04888 0.00202048)
(-0.0183697 3.19713 0.0531956)
(0.0811571 -0.994063 0.0489654)
(0.139198 -1.16983 0.0497646)
(0.234256 -1.00725 0.0526164)
(0.355267 -0.765024 0.0499937)
(0.429169 -0.466038 0.0391295)
(0.407407 -0.076892 0.0228715)
(0.284804 0.502137 0.00304919)
(-0.0601159 1.51621 -0.0132963)
(-0.165785 3.28389 0.00629907)
(0.0641033 -1.1524 0.031835)
(0.132797 -1.24091 0.0302966)
(0.176847 -1.05407 0.0255804)
(0.219951 -0.792023 0.0218409)
(0.235155 -0.438586 0.0174225)
(0.194459 0.0221646 0.0103349)
(0.101536 0.66966 -0.00174823)
(-0.131866 1.70154 -0.0144977)
(-0.165068 3.11434 -0.00365009)
(0.0460183 -1.19424 0.0193078)
(0.087136 -1.23842 0.0171679)
(0.106913 -1.05986 0.0118968)
(0.124942 -0.791781 0.00505656)
(0.11546 -0.408341 -0.000800855)
(0.0641597 0.0987335 -0.00362584)
(-0.0168802 0.781005 -0.00798584)
(-0.18268 1.78859 -0.0157832)
(-0.15167 2.8627 -0.00655134)
(0.0260068 -1.24183 0.0106928)
(0.0484658 -1.24209 0.00872683)
(0.0533144 -1.06548 0.00424375)
(0.0541319 -0.787096 -0.00243444)
(0.0342133 -0.380472 -0.00991166)
(-0.0175866 0.159336 -0.0134411)
(-0.0902718 0.86559 -0.0139597)
(-0.211037 1.83765 -0.0172541)
(-0.142962 2.63128 -0.00843693)
(0.011733 -1.26117 0.00547309)
(0.0199727 -1.23537 0.00397169)
(0.0169623 -1.0598 0.000449702)
(0.00776332 -0.771731 -0.00495141)
(-0.0181944 -0.349585 -0.0122105)
(-0.06755 0.210182 -0.0179097)
(-0.135287 0.930695 -0.0184569)
(-0.222055 1.86251 -0.0186266)
(-0.133769 2.4486 -0.0092185)
(0.00579402 -1.26798 0.00368364)
(0.00705833 -1.22974 0.0022238)
(0.000720179 -1.05096 -0.000762901)
(-0.0135843 -0.753238 -0.00512139)
(-0.0428335 -0.316252 -0.0108987)
(-0.088791 0.258347 -0.0166772)
(-0.145854 0.975778 -0.0185289)
(-0.198099 1.82141 -0.0173479)
(-0.111239 2.1864 -0.00807916)
(0.447487 -4.09887 0.00920596)
(0.92336 -2.94181 0.00300548)
(1.42176 -1.66031 0.00230793)
(1.77939 -0.944522 0.00168387)
(2.01295 -0.568839 0.00136128)
(2.23942 -0.332898 0.00117274)
(2.46934 -0.0343785 0.00104013)
(2.36588 0.992917 0.000807023)
(3.64795 3.10602 0.000223504)
(0.403207 0.646598 -0.00143377)
(0.41329 0.00474365 0.00195278)
(0.721647 -0.191442 0.00217247)
(1.0284 -0.239008 0.00158921)
(1.23377 -0.246675 0.00119823)
(1.31666 -0.24025 0.000964222)
(1.22287 -0.167996 0.000787516)
(0.729295 0.415423 0.00060566)
(0.701058 3.02741 0.000336614)
(0.0512992 -1.25165 -0.00469375)
(0.307818 -1.31123 0.00141639)
(0.507304 -1.02846 0.00173516)
(0.680819 -0.76044 0.00100202)
(0.785432 -0.508779 0.000708154)
(0.768904 -0.221099 0.000582736)
(0.58976 0.216324 0.000478918)
(0.103253 1.08504 0.000358443)
(-0.0467613 3.19849 0.000189996)
(0.0814683 -1.01132 -0.00434689)
(0.139551 -1.17298 0.000381111)
(0.237809 -1.00453 0.000369223)
(0.358539 -0.758883 -1.93447e-05)
(0.427593 -0.457066 3.31604e-05)
(0.398661 -0.0619915 0.000138656)
(0.266799 0.529527 0.000198407)
(-0.087767 1.56894 0.000198409)
(-0.193348 3.30056 0.000116076)
(0.0636823 -1.1633 -0.00176984)
(0.131602 -1.23821 -0.0010901)
(0.174752 -1.04549 -0.00052398)
(0.216745 -0.778763 -0.00043871)
(0.229287 -0.422686 -0.000311821)
(0.183824 0.0432187 -0.000157751)
(0.0837251 0.703279 -1.14056e-05)
(-0.15503 1.75937 7.53789e-05)
(-0.188186 3.13601 7.15097e-05)
(0.0451289 -1.20346 -0.000848819)
(0.0857625 -1.23463 -0.000446606)
(0.104741 -1.04894 -0.000357475)
(0.121283 -0.77522 -0.000400483)
(0.108768 -0.387751 -0.000385455)
(0.0534083 0.124268 -0.000289846)
(-0.0335736 0.817966 -0.000137965)
(-0.201965 1.84472 -1.80028e-05)
(-0.170361 2.88188 3.50794e-05)
(0.0254307 -1.24933 -0.00051549)
(0.047389 -1.23712 -0.000337019)
(0.0514363 -1.0532 -0.000297109)
(0.050988 -0.768761 -0.000322871)
(0.0284021 -0.357316 -0.000346436)
(-0.0270823 0.187527 -0.000306598)
(-0.104983 0.904039 -0.000193519)
(-0.227296 1.89021 -7.83052e-05)
(-0.158119 2.64728 5.26907e-06)
(0.0113121 -1.26761 -0.000429416)
(0.0192826 -1.2297 -0.000308736)
(0.0156346 -1.04683 -0.00027835)
(0.00525442 -0.752731 -0.000281012)
(-0.022907 -0.325527 -0.00028995)
(-0.0754227 0.239609 -0.000267182)
(-0.147501 0.969334 -0.000200474)
(-0.235537 1.91132 -0.000108574)
(-0.145974 2.46251 -1.41899e-05)
(0.00547543 -1.27389 -1.34616e-05)
(0.00654062 -1.22371 -7.14851e-05)
(-0.000332057 -1.03767 -0.000113482)
(-0.0156388 -0.733942 -0.000150655)
(-0.0466283 -0.291976 -0.000182182)
(-0.0948023 0.287644 -0.000207357)
(-0.154991 1.01315 -0.0001772)
(-0.208674 1.86579 -0.000115984)
(-0.120418 2.19823 -2.47822e-05)
(0.434781 -4.06582 0.205459)
(0.909897 -2.93707 0.180258)
(1.4094 -1.66431 0.165777)
(1.76838 -0.949584 0.133322)
(2.00382 -0.571109 0.087151)
(2.22999 -0.332141 0.023411)
(2.46277 -0.0359568 -0.0739175)
(2.35827 0.975524 -0.17115)
(3.66867 3.07342 -0.212478)
(0.39474 0.663323 -0.0836056)
(0.393494 0.00536312 -0.0416087)
(0.704526 -0.193473 -0.00732606)
(1.01604 -0.241471 0.00497171)
(1.22729 -0.248383 0.00426942)
(1.3165 -0.241366 -0.00806123)
(1.23187 -0.170984 -0.0341057)
(0.74452 0.402258 -0.0676616)
(0.724627 3.02791 -0.158921)
(0.0492029 -1.23944 -0.0953949)
(0.297816 -1.31602 -0.0944127)
(0.494265 -1.0336 -0.0800872)
(0.670913 -0.765025 -0.0621841)
(0.782661 -0.514167 -0.0433886)
(0.774843 -0.229744 -0.0260238)
(0.606403 0.199752 -0.0103037)
(0.130641 1.04946 -0.00136281)
(-0.0184842 3.1977 -0.0529718)
(0.0833366 -0.986352 -0.0573061)
(0.137971 -1.16929 -0.0530039)
(0.235808 -1.00733 -0.0531331)
(0.355825 -0.764686 -0.0501763)
(0.429086 -0.465747 -0.0390513)
(0.407267 -0.0765284 -0.0226047)
(0.284623 0.502603 -0.00266665)
(-0.0603624 1.5169 0.0136594)
(-0.16593 3.28449 -0.00617238)
(0.06528 -1.14821 -0.0348188)
(0.133718 -1.23905 -0.0319363)
(0.177275 -1.05383 -0.0265306)
(0.219996 -0.791452 -0.0227087)
(0.235123 -0.438128 -0.0180467)
(0.194369 0.0226137 -0.010662)
(0.101391 0.670188 0.00171643)
(-0.132064 1.70229 0.0146262)
(-0.165205 3.11493 0.00370734)
(0.0459278 -1.19139 -0.0208607)
(0.0873955 -1.23708 -0.0181992)
(0.107126 -1.05906 -0.0126515)
(0.124966 -0.791189 -0.00583081)
(0.11547 -0.407858 5.654e-05)
(0.0641037 0.0992222 0.00305545)
(-0.0169931 0.781581 0.0077124)
(-0.182831 1.78936 0.0157348)
(-0.151784 2.86326 0.00655041)
(0.0260959 -1.23995 -0.011662)
(0.048651 -1.24101 -0.00941392)
(0.0534645 -1.06479 -0.00482703)
(0.0542072 -0.786586 0.00182187)
(0.034252 -0.380013 0.00925796)
(-0.0176068 0.159841 0.0128535)
(-0.090354 0.866194 0.0135864)
(-0.211152 1.83843 0.0170935)
(-0.143053 2.63184 0.00838962)
(0.011799 -1.2595 -0.00630417)
(0.0201135 -1.23433 -0.0045822)
(0.0170992 -1.05913 -0.000996198)
(0.00786934 -0.771256 0.00441224)
(-0.018127 -0.349136 0.011664)
(-0.0675435 0.210688 0.0174055)
(-0.135347 0.931308 0.0180774)
(-0.222147 1.86328 0.0184113)
(-0.133842 2.44915 0.00914289)
(0.00583367 -1.26652 -0.00370244)
(0.00712681 -1.22883 -0.00236798)
(0.000788576 -1.05037 0.000542018)
(-0.0135305 -0.752837 0.00483421)
(-0.0428061 -0.315879 0.0105566)
(-0.0887812 0.258862 0.0162876)
(-0.145904 0.976387 0.0181958)
(-0.198177 1.82216 0.0171189)
(-0.111294 2.18694 0.00799309)
(0.399438 -3.93544 0.412781)
(0.872564 -2.9158 0.377075)
(1.37464 -1.66991 0.342573)
(1.74082 -0.960407 0.270245)
(1.9838 -0.574009 0.17488)
(2.20773 -0.325794 0.047333)
(2.44607 -0.0366329 -0.156388)
(2.33046 0.913462 -0.368917)
(3.73408 2.94611 -0.410837)
(0.364246 0.78423 -0.215672)
(0.321087 0.0156447 -0.0947335)
(0.644462 -0.189273 -0.0286403)
(0.975325 -0.238748 -0.00588446)
(1.20742 -0.245416 -0.0034002)
(1.31591 -0.239392 -0.0213625)
(1.25879 -0.177691 -0.0663826)
(0.788249 0.354087 -0.118732)
(0.794989 2.98015 -0.245438)
(0.0623749 -1.17913 -0.157422)
(0.273506 -1.30864 -0.168704)
(0.449314 -1.04909 -0.15928)
(0.636656 -0.778504 -0.130855)
(0.770716 -0.528591 -0.0938144)
(0.787727 -0.253811 -0.0570002)
(0.649491 0.151081 -0.0202587)
(0.203949 0.942042 0.0156286)
(0.058259 3.12353 -0.0311273)
(0.0909912 -0.930627 -0.107914)
(0.146455 -1.16126 -0.0992631)
(0.229107 -1.02655 -0.0942825)
(0.345553 -0.790466 -0.091369)
(0.429783 -0.495022 -0.0749481)
(0.426282 -0.119106 -0.0472036)
(0.327351 0.426155 -0.00898795)
(0.00895033 1.36345 0.0343077)
(-0.0947784 3.17469 0.0422547)
(0.0676904 -1.10279 -0.0613693)
(0.137345 -1.2418 -0.0576026)
(0.182922 -1.08177 -0.0462197)
(0.227176 -0.834132 -0.0374437)
(0.24822 -0.486825 -0.0306737)
(0.218758 -0.0366243 -0.0219953)
(0.142529 0.580016 -0.00197966)
(-0.0761623 1.54209 0.0295352)
(-0.107689 3.00299 0.0477216)
(0.048684 -1.15627 -0.0384049)
(0.0910515 -1.24546 -0.0336039)
(0.112414 -1.09222 -0.0228912)
(0.132872 -0.840567 -0.00984909)
(0.130621 -0.467205 0.00134151)
(0.0888668 0.0293771 0.00428212)
(0.0212614 0.685713 0.0095083)
(-0.138123 1.6388 0.0291091)
(-0.106648 2.76637 0.0460178)
(0.0276683 -1.20965 -0.0213618)
(0.0512657 -1.25235 -0.0175187)
(0.0578228 -1.10055 -0.00911967)
(0.0613508 -0.839399 0.00262468)
(0.0472563 -0.444399 0.0161212)
(0.00381833 0.0849653 0.0215666)
(-0.0577477 0.76923 0.0206689)
(-0.175265 1.70054 0.0311423)
(-0.107543 2.54851 0.0449672)
(0.0128147 -1.2324 -0.0115036)
(0.0217111 -1.24751 -0.0085894)
(0.0201999 -1.09615 -0.00231873)
(0.0135365 -0.825186 0.00682521)
(-0.00758567 -0.414484 0.0195219)
(-0.0503977 0.13505 0.0296495)
(-0.109854 0.836732 0.0296496)
(-0.194304 1.73786 0.0343365)
(-0.10633 2.37459 0.0434146)
(0.00646756 -1.24107 -0.00696121)
(0.00814908 -1.24308 -0.00457672)
(0.00296877 -1.08823 0.000455896)
(-0.00918027 -0.807392 0.00761498)
(-0.0345529 -0.380831 0.0173863)
(-0.0766376 0.186365 0.0278354)
(-0.128747 0.889009 0.03119)
(-0.178465 1.71279 0.0339595)
(-0.0918874 2.1238 0.0372026)
(0.284895 -3.58657 0.519009)
(0.823483 -2.83184 0.522326)
(1.33346 -1.63616 0.468644)
(1.72315 -0.948584 0.3674)
(1.98812 -0.557172 0.234117)
(2.20504 -0.300094 0.0556438)
(2.44758 -0.0335768 -0.248053)
(2.23383 0.712793 -0.562529)
(3.79695 2.52243 -0.490797)
(0.172532 1.10171 -0.418956)
(0.135973 0.102685 -0.216326)
(0.511812 -0.0846091 -0.104828)
(0.890727 -0.155352 -0.0545073)
(1.16496 -0.182606 -0.0324866)
(1.30641 -0.199989 -0.041165)
(1.28976 -0.178008 -0.0901752)
(0.833857 0.222102 -0.12399)
(0.837508 2.67082 -0.169631)
(0.0929515 -0.91747 -0.125205)
(0.230603 -1.23144 -0.1896)
(0.376358 -1.05658 -0.219658)
(0.572068 -0.796953 -0.208438)
(0.73497 -0.549119 -0.158071)
(0.782541 -0.289025 -0.0970028)
(0.68175 0.0739907 -0.0310086)
(0.277767 0.759644 0.0605099)
(0.108243 2.78485 0.119814)
(0.106978 -0.788484 -0.127118)
(0.163634 -1.15178 -0.121855)
(0.234828 -1.09261 -0.111159)
(0.335312 -0.871773 -0.11305)
(0.421938 -0.568874 -0.100966)
(0.433063 -0.194682 -0.0706348)
(0.354976 0.316743 -0.0201402)
(0.0639632 1.1524 0.0607805)
(-0.0521848 2.82331 0.173323)
(0.0737806 -0.986655 -0.0717457)
(0.144264 -1.24562 -0.0796263)
(0.189642 -1.14949 -0.065886)
(0.232862 -0.926423 -0.051643)
(0.257512 -0.58445 -0.0396742)
(0.236528 -0.135119 -0.0338042)
(0.170906 0.463552 -0.0154141)
(-0.0408362 1.35828 0.0324573)
(-0.0805507 2.69364 0.138823)
(0.0526525 -1.07115 -0.0495056)
(0.0956254 -1.2634 -0.049829)
(0.117599 -1.16246 -0.037894)
(0.137745 -0.933592 -0.0202253)
(0.141165 -0.566577 -0.00155976)
(0.108432 -0.0744024 0.000370955)
(0.0483004 0.573998 -0.00197666)
(-0.112922 1.48644 0.0176617)
(-0.0897007 2.51023 0.105991)
(0.0298467 -1.13402 -0.028156)
(0.0533185 -1.27047 -0.0274188)
(0.0607195 -1.16786 -0.0180208)
(0.0658796 -0.929828 -0.00299363)
(0.0566503 -0.543765 0.01593)
(0.0212414 -0.0167657 0.0209852)
(-0.0356682 0.667014 0.0105283)
(-0.156789 1.57093 0.0125154)
(-0.0960968 2.32932 0.0831224)
(0.0140851 -1.16162 -0.0154055)
(0.0224287 -1.26556 -0.0136058)
(0.0217661 -1.16125 -0.00667835)
(0.0169481 -0.913952 0.00423632)
(0.000598112 -0.50935 0.0193944)
(-0.0370139 0.0421069 0.0315385)
(-0.0949524 0.746878 0.0218508)
(-0.182619 1.6252 0.0139943)
(-0.0990536 2.17717 0.0681008)
(0.00700389 -1.17268 -0.00949348)
(0.008267 -1.26172 -0.0073052)
(0.0036469 -1.15312 -0.00173599)
(-0.00650213 -0.896478 0.00617282)
(-0.028152 -0.472314 0.0162763)
(-0.0701943 0.10824 0.0293211)
(-0.123418 0.818007 0.0267607)
(-0.174164 1.61646 0.0196338)
(-0.0882433 1.94373 0.0513707)
(0.0537767 -2.02987 0.441031)
(1.03452 -2.14538 0.596083)
(1.41513 -1.30764 0.554239)
(1.91618 -0.771713 0.450964)
(2.19652 -0.432415 0.313321)
(2.36372 -0.244038 0.151006)
(2.49367 -0.131785 -0.129178)
(1.69878 -0.0173581 -0.445353)
(3.22745 1.24378 -0.336478)
(-0.0738007 1.03996 -0.379047)
(-0.297139 0.309176 -0.107769)
(0.251592 0.493714 -0.167397)
(0.598103 0.314725 -0.126606)
(0.950702 0.185673 -0.0940665)
(1.15544 0.0327413 -0.0702038)
(1.17579 -0.140724 -0.0721518)
(0.666931 -0.188284 -0.0541379)
(0.351482 1.75496 -0.0451915)
(0.110992 -0.221255 -0.0416934)
(0.0975946 -0.699265 -0.0220686)
(0.254234 -0.808302 -0.107347)
(0.39989 -0.704687 -0.138014)
(0.564565 -0.543506 -0.138812)
(0.637021 -0.330738 -0.106339)
(0.584219 -0.0382594 -0.0399177)
(0.210023 0.50184 0.0822011)
(-0.22989 2.07161 0.19161)
(0.0952141 -0.348993 -0.0940539)
(0.147999 -0.868146 -0.0835434)
(0.226631 -0.973636 -0.0798502)
(0.305206 -0.884664 -0.0732167)
(0.374229 -0.659887 -0.0772834)
(0.373933 -0.312969 -0.0776292)
(0.301354 0.184314 -0.0390459)
(-0.00752129 1.04009 0.0856348)
(-0.307721 2.16797 0.23669)
(0.0669193 -0.578705 -0.0472252)
(0.126618 -1.02535 -0.0489863)
(0.176654 -1.11444 -0.0450206)
(0.222318 -1.01124 -0.0292053)
(0.250611 -0.737846 -0.0217054)
(0.228453 -0.309406 -0.0318465)
(0.141746 0.325879 -0.0278244)
(-0.127507 1.35331 0.0703523)
(-0.286235 2.11846 0.20915)
(0.0504905 -0.718989 -0.0350198)
(0.0887582 -1.12034 -0.0355627)
(0.113784 -1.19243 -0.0267681)
(0.134536 -1.06415 -0.0122203)
(0.139318 -0.738598 0.00352851)
(0.109396 -0.248547 0.000238547)
(0.0142254 0.477626 -0.00924834)
(-0.203339 1.53899 0.0627823)
(-0.252164 2.01001 0.176402)
(0.029646 -0.817805 -0.0207783)
(0.0487283 -1.17825 -0.0198307)
(0.058176 -1.23618 -0.0126131)
(0.0633866 -1.08415 -0.00193164)
(0.0559653 -0.708095 0.0135692)
(0.0183898 -0.162951 0.016972)
(-0.0816587 0.632235 0.00590849)
(-0.245546 1.64664 0.058714)
(-0.21974 1.87757 0.147408)
(0.0133907 -0.867547 -0.0118301)
(0.0187247 -1.20128 -0.0106794)
(0.0181451 -1.2499 -0.00548764)
(0.0140778 -1.07573 0.0030347)
(0.00118293 -0.657611 0.0151696)
(-0.0467827 -0.0573593 0.0260268)
(-0.150375 0.765217 0.0200222)
(-0.267101 1.70681 0.0591884)
(-0.190645 1.75336 0.126536)
(0.00605257 -0.888209 -0.00791492)
(0.00482142 -1.20888 -0.00647845)
(-0.000240157 -1.25005 -0.00208502)
(-0.00883489 -1.06084 0.00419869)
(-0.0262477 -0.608746 0.0140889)
(-0.0950548 0.0906251 0.0286014)
(-0.186344 0.918214 0.0316382)
(-0.247118 1.71158 0.060501)
(-0.145799 1.56142 0.100689)
)
;

boundaryField
{
    inlet
    {
        type            fixedValue;
        value           uniform (10 0 0);
    }
    outlet
    {
        type            zeroGradient;
    }
    lowerWall
    {
        type            noSlip;
    }
    upperWall
    {
        type            noSlip;
    }
}


// ************************************************************************* //
