/*--------------------------------*- C++ -*----------------------------------*\
  =========                 |
  \\      /  F ield         | OpenFOAM: The Open Source CFD Toolbox
   \\    /   O peration     | Website:  https://openfoam.org
    \\  /    A nd           | Version:  11
     \\/     M anipulation  |
\*---------------------------------------------------------------------------*/
FoamFile
{
    format      ascii;
    class       volScalarField;
    location    "40";
    object      k;
}
// * * * * * * * * * * * * * * * * * * * * * * * * * * * * * * * * * * * * * //

dimensions      [0 2 -2 0 0 0 0];

internalField   nonuniform List<scalar> 
17196
(
0.00953983
0.00339397
0.00381538
0.00551405
0.00664428
0.00711234
0.00862894
0.0116902
0.0101524
0.0106165
0.0142793
0.0237456
0.02978
0.0337286
0.0387667
0.0425884
0.0462853
0.047018
0.0481396
0.0492012
0.0500565
0.0515387
0.0523809
0.0522276
0.0522821
0.0103175
0.00410135
0.00398587
0.00592178
0.00828547
0.00800595
0.00901924
0.0142962
0.0123357
0.0174176
0.0245869
0.0305226
0.0342543
0.0360474
0.0391467
0.0421235
0.044334
0.0457224
0.046838
0.0504449
0.0520609
0.05132
0.0525459
0.0536148
0.0587223
0.00880945
0.00483802
0.0043952
0.00349973
0.0054372
0.00609491
0.00750193
0.0113544
0.0133738
0.0194937
0.0236121
0.0271357
0.0292463
0.0310432
0.0325683
0.0339963
0.0354563
0.0361368
0.038668
0.0407618
0.0429665
0.0448687
0.0470928
0.0484695
0.052415
0.00957836
0.00531848
0.00448564
0.00336368
0.00505104
0.0056325
0.00853536
0.0116975
0.0162851
0.0196478
0.0226535
0.0251911
0.0280781
0.029596
0.0322749
0.0331082
0.034159
0.0361043
0.0379447
0.0390835
0.0411249
0.0426062
0.0445108
0.046487
0.0493188
0.0092063
0.00532872
0.00370365
0.00329098
0.00363892
0.00492597
0.00793496
0.0126222
0.0155001
0.0205823
0.0223454
0.024352
0.0259241
0.0290149
0.0295401
0.0297006
0.0319772
0.0334637
0.0347506
0.03694
0.0388217
0.0412026
0.0423387
0.0431827
0.0455136
0.00926787
0.00523553
0.00322743
0.00335401
0.00381388
0.00401555
0.00796327
0.011856
0.0157665
0.0184241
0.0215511
0.0238611
0.0260199
0.0279562
0.0318223
0.0332131
0.0343862
0.0360702
0.0371795
0.0373369
0.040583
0.0421004
0.0418244
0.043608
0.0497686
0.00924071
0.00409611
0.0031208
0.00329812
0.00370911
0.004016
0.00652726
0.00869723
0.0116633
0.0156825
0.0190631
0.0225876
0.0253448
0.0279161
0.0310329
0.033948
0.035633
0.0378911
0.0400781
0.0410003
0.0415406
0.0424638
0.0447028
0.0463044
0.0539537
0.00981603
0.0034595
0.00345823
0.00381311
0.00412241
0.0043349
0.00468599
0.00656558
0.00854678
0.0116461
0.0146599
0.0182046
0.022145
0.0253504
0.0282182
0.0320634
0.0350281
0.0372408
0.0395586
0.0409469
0.0426888
0.0441921
0.0459301
0.051404
0.058817
0.00947435
0.00259136
0.00312553
0.00376782
0.0039662
0.00366233
0.00390929
0.00426769
0.0056588
0.00743246
0.0107027
0.0137284
0.0163277
0.0206871
0.0234487
0.0271267
0.030711
0.0336819
0.0361144
0.0380852
0.0397726
0.0420058
0.0444682
0.0507004
0.0596169
0.00945152
0.00347318
0.00401676
0.00390286
0.00357789
0.00309043
0.0031748
0.00340664
0.00426512
0.00518885
0.0069697
0.0101815
0.012748
0.0153831
0.0183266
0.0210488
0.0231884
0.0253846
0.0274189
0.0303314
0.0323861
0.0365869
0.0399095
0.0472573
0.0563546
0.00959595
0.00392026
0.00435333
0.00333533
0.00317222
0.00272755
0.00239289
0.00272276
0.00343199
0.00440266
0.00580379
0.00798024
0.0106246
0.0131521
0.0152711
0.0173649
0.0192983
0.0214023
0.0229824
0.0250274
0.0265851
0.0312422
0.0340338
0.042935
0.0506213
0.0100883
0.00417836
0.00392641
0.00290348
0.00274541
0.00246861
0.00228596
0.00246366
0.00276576
0.00359925
0.00439478
0.00583871
0.00762441
0.0104699
0.0131766
0.0153381
0.0169432
0.0186567
0.0201358
0.0218566
0.0226929
0.0265423
0.0277118
0.0380722
0.0431524
0.00982404
0.00449334
0.00344047
0.00262501
0.002514
0.00223921
0.00221819
0.00242663
0.00280454
0.00312673
0.00391728
0.00487572
0.00589402
0.00775935
0.0099215
0.0122835
0.0148014
0.0174968
0.0198429
0.0218122
0.0228605
0.0243357
0.0250094
0.0311245
0.0356249
0.00965718
0.00370433
0.00281741
0.00237299
0.0023165
0.00212688
0.00198852
0.00221857
0.00250584
0.00305114
0.00385144
0.00495412
0.00572232
0.007632
0.00899139
0.0117628
0.0139802
0.0169625
0.020204
0.0224642
0.0241975
0.0257617
0.0267751
0.0277872
0.033325
0.00918339
0.00265272
0.0024759
0.00238618
0.00234556
0.00216031
0.00200048
0.0020825
0.00214899
0.00298633
0.00352212
0.00495319
0.00587463
0.00758257
0.00909568
0.0112973
0.0135409
0.0161245
0.0200207
0.0225204
0.0251174
0.0269842
0.0281545
0.0296873
0.03254
0.0093012
0.00293471
0.00247366
0.00251889
0.00242068
0.00218605
0.00201402
0.00192518
0.00228127
0.00296844
0.00378271
0.00515847
0.00609658
0.00754491
0.00912595
0.0108788
0.013228
0.0154502
0.0186325
0.0214478
0.0242869
0.0266176
0.0280128
0.029772
0.0326395
0.0109287
0.00315535
0.00288241
0.0026071
0.00265317
0.0021392
0.00199381
0.00193315
0.00232085
0.00299213
0.00383324
0.00521033
0.00631189
0.00811658
0.00934487
0.0108022
0.0127884
0.01502
0.0176256
0.0196911
0.0218022
0.0239818
0.0262201
0.0289675
0.0315444
0.0106825
0.00337903
0.00309935
0.00262961
0.00255023
0.00215789
0.00195978
0.001963
0.00236133
0.00292637
0.00388661
0.00516172
0.00628381
0.00816908
0.00942528
0.0111148
0.0129915
0.0146986
0.0158574
0.0180186
0.0194785
0.0205076
0.0244505
0.0263912
0.0281273
0.0100377
0.00361683
0.0027187
0.00250346
0.00262302
0.00219404
0.00200982
0.00199154
0.00214866
0.00252299
0.00344347
0.00469372
0.00595785
0.00776876
0.00892867
0.0108211
0.0125432
0.0141654
0.0155477
0.0167709
0.0202765
0.0216076
0.0224853
0.0233082
0.0263958
0.0114848
0.00367532
0.00255979
0.00253753
0.00251377
0.00226423
0.00227116
0.0022439
0.00235452
0.00278831
0.00320538
0.004348
0.00536026
0.00710478
0.00858277
0.010178
0.012187
0.0136052
0.0148659
0.0156165
0.0174497
0.0184823
0.0197623
0.0208134
0.0241143
0.0114093
0.0031787
0.00226805
0.0027165
0.00270597
0.00236147
0.00259215
0.00277573
0.00282583
0.00291459
0.00295552
0.0036617
0.00450286
0.0063809
0.00771733
0.00966661
0.0114323
0.0125177
0.0150576
0.0160843
0.0168948
0.0179124
0.020396
0.0214081
0.0228992
0.010888
0.0034459
0.00197188
0.00251114
0.00262122
0.00272069
0.00237235
0.0030298
0.00288792
0.00302767
0.0036066
0.00439328
0.0052688
0.00652107
0.00793873
0.00920989
0.0105216
0.0117667
0.0144885
0.0162031
0.0170601
0.0193829
0.0187724
0.020446
0.0216071
0.0108976
0.0025585
0.00187675
0.00233762
0.00271007
0.00290565
0.00323381
0.00349615
0.00371701
0.00370894
0.0042121
0.00490129
0.00561634
0.00624775
0.00736239
0.0083101
0.009354
0.0106243
0.0113521
0.0121928
0.0132681
0.0140258
0.0162383
0.017057
0.018495
0.00802562
0.00297871
0.00204498
0.00275588
0.002733
0.00386954
0.00431726
0.00523489
0.00571936
0.00583119
0.00595493
0.00665107
0.00727138
0.00823681
0.00913771
0.0101488
0.0112053
0.0123856
0.0132564
0.014092
0.0151503
0.0159642
0.0169088
0.0169383
0.0189903
0.00688786
0.00539596
0.00420941
0.00410036
0.0046072
0.00514153
0.00553578
0.00662564
0.00862139
0.0105097
0.0121044
0.0145075
0.0162847
0.0186994
0.0204167
0.0223437
0.0242081
0.0259859
0.0278811
0.0294199
0.0311976
0.0327188
0.0355241
0.0370338
0.0400828
0.00953285
0.00427286
0.00723286
0.0112213
0.0133812
0.0154477
0.0171617
0.0196463
0.0244138
0.0284148
0.0319069
0.0344764
0.0376779
0.0444283
0.0505511
0.0572292
0.0628142
0.0667926
0.0699334
0.0748025
0.078112
0.0840151
0.0869876
0.0893613
0.0880063
0.00434576
0.00244533
0.0117935
0.0130099
0.0139606
0.0171477
0.0277612
0.0319169
0.0290536
0.0325388
0.0365037
0.0355074
0.0346366
0.0345104
0.0363246
0.0341694
0.033931
0.0324447
0.0322362
0.0296764
0.028895
0.0286441
0.0286279
0.0289293
0.0296259
0.00339828
0.00214865
0.00626303
0.0141051
0.0174786
0.0275807
0.0301022
0.0262021
0.0215725
0.0235847
0.0221188
0.0196143
0.0176878
0.016587
0.0168494
0.0168617
0.0153332
0.0155812
0.0171836
0.0174881
0.0181705
0.0190338
0.019978
0.0211009
0.0222316
0.00333512
0.00260786
0.00565857
0.00789145
0.0172812
0.023312
0.0204455
0.0180541
0.0180487
0.0187271
0.0193506
0.0167819
0.0143924
0.0116648
0.0102707
0.00895636
0.00837891
0.0114559
0.0102606
0.0131646
0.0119306
0.0120536
0.0122076
0.0175086
0.0185647
0.00339379
0.00264913
0.00416785
0.00677485
0.0116496
0.0121689
0.0121783
0.0149094
0.0165191
0.0168021
0.0192194
0.0165783
0.0139531
0.0116988
0.00865196
0.0082082
0.00807932
0.00790531
0.00754959
0.00908909
0.00935876
0.0109571
0.0112609
0.0163
0.0195935
0.00362981
0.00289958
0.00480803
0.00549439
0.00634383
0.0063709
0.00875929
0.0109035
0.0136354
0.01524
0.0150888
0.0151979
0.0161591
0.0146851
0.0138093
0.0118724
0.0132201
0.0136302
0.0109995
0.0122006
0.0109426
0.0131742
0.0143729
0.0246717
0.0306793
0.00377004
0.00279666
0.00407725
0.00351025
0.00350193
0.00358819
0.00529562
0.00801108
0.0105654
0.0115853
0.0141176
0.0156815
0.0160659
0.0162699
0.0158773
0.0172549
0.0178573
0.0170039
0.017071
0.0158594
0.0171476
0.0172772
0.0176619
0.0328209
0.0423069
0.00389359
0.00239227
0.00388049
0.00346842
0.00305746
0.00269804
0.00267652
0.00528062
0.00697981
0.00927959
0.0113481
0.0128264
0.0142421
0.016765
0.0172378
0.0187119
0.0189092
0.0197984
0.0208099
0.0215527
0.0213039
0.0201077
0.0234222
0.0421667
0.0545664
0.00390221
0.00239337
0.00365081
0.00340897
0.00264701
0.00194185
0.00183232
0.0021166
0.00398227
0.00554845
0.00812805
0.0102303
0.0120752
0.0142866
0.0164974
0.0184393
0.0200935
0.0207012
0.0219764
0.0217006
0.0240695
0.024146
0.0268519
0.0405282
0.0511224
0.00386983
0.00228468
0.0040434
0.00352445
0.00236521
0.00192339
0.00170931
0.00188071
0.00191557
0.00325812
0.00475346
0.0073746
0.0101753
0.0126353
0.0149907
0.0172039
0.0185893
0.0191735
0.0192647
0.0198991
0.020853
0.0229365
0.0256786
0.0367046
0.049352
0.00424327
0.00169183
0.00455992
0.00346193
0.00246925
0.00178435
0.0016457
0.00166947
0.00183168
0.00219349
0.00283638
0.00398344
0.00586607
0.00920049
0.0123266
0.0141112
0.0161729
0.0176467
0.0183204
0.0191547
0.0205493
0.0229282
0.0262838
0.0399759
0.0586623
0.0042229
0.00173755
0.00445449
0.00358744
0.00231903
0.00171837
0.00167095
0.00167407
0.00167023
0.00192854
0.00233112
0.00288593
0.00350921
0.00480596
0.00784986
0.0103603
0.0127651
0.0151217
0.0170184
0.0184321
0.0208753
0.0221449
0.0260172
0.0388495
0.069143
0.00371831
0.00282414
0.00417394
0.00297346
0.00215246
0.00191031
0.0016792
0.0016301
0.00159922
0.00177599
0.00205735
0.00240169
0.00279358
0.00334409
0.00458188
0.00703622
0.00939644
0.0116758
0.0142752
0.0161745
0.0194325
0.0208481
0.0264206
0.0375205
0.074728
0.00453059
0.00301052
0.00365355
0.00277037
0.00228301
0.00193327
0.00168525
0.00158502
0.00155555
0.00173265
0.00186916
0.00203035
0.00226629
0.00253473
0.00309918
0.0045282
0.00651579
0.008413
0.0106576
0.0125559
0.0152022
0.0175498
0.0219224
0.0355876
0.0747119
0.00526727
0.00326587
0.00335101
0.00312027
0.00264748
0.00212067
0.00166375
0.00156965
0.00152251
0.00162485
0.00177708
0.00189452
0.002074
0.00222395
0.00252306
0.00317108
0.00468255
0.00653164
0.00827296
0.00983262
0.01165
0.0133513
0.0175068
0.0306398
0.0701942
0.00560706
0.0030503
0.00278439
0.0034742
0.00293944
0.00217966
0.00170242
0.00148531
0.001543
0.00149353
0.00161684
0.00168971
0.00195754
0.00201211
0.00210227
0.00250158
0.00355719
0.00489559
0.00630207
0.00788319
0.00893373
0.0104779
0.0133402
0.0220717
0.0659269
0.00495309
0.00228689
0.0036108
0.00374942
0.00332299
0.00215338
0.00185252
0.00160423
0.00161746
0.00155099
0.00185555
0.00206041
0.00226376
0.0024536
0.00240418
0.00236915
0.00288668
0.00398449
0.00499726
0.00606384
0.00756218
0.00879755
0.0107663
0.0151169
0.0439507
0.00354385
0.00249301
0.00292045
0.00338604
0.00320035
0.00225292
0.00176173
0.00171308
0.00159919
0.00150853
0.00184276
0.00251768
0.00269518
0.00281591
0.00277283
0.00305888
0.00304982
0.0035926
0.00466266
0.00536878
0.00657693
0.00794011
0.00918068
0.0117761
0.0269254
0.00379456
0.0032289
0.00287923
0.00360765
0.00317754
0.00235269
0.00191051
0.00195179
0.00192294
0.00177812
0.00195241
0.00246668
0.00346715
0.00357038
0.00318459
0.0031593
0.00342319
0.00352763
0.00417898
0.0050891
0.00591163
0.00735523
0.00847941
0.010036
0.0179328
0.00333728
0.0033061
0.0026852
0.00389702
0.00321107
0.00256444
0.00250507
0.00272469
0.00281753
0.00252991
0.00247383
0.00238608
0.00378502
0.00406558
0.00417757
0.00435388
0.00423418
0.00481221
0.00484108
0.00473215
0.00515311
0.00599361
0.00801111
0.00933745
0.0144621
0.002992
0.00303552
0.00282743
0.00430911
0.00399292
0.00284546
0.003143
0.00330977
0.00328584
0.0044804
0.00430617
0.00359945
0.00365982
0.00521414
0.00567288
0.00561167
0.00545077
0.0048275
0.00570174
0.00621132
0.00578686
0.00582604
0.00759612
0.00913659
0.0131048
0.00288757
0.00369581
0.00431049
0.00418827
0.00420172
0.00419632
0.00372828
0.00454216
0.0050742
0.00436193
0.00495859
0.00403226
0.00407729
0.004508
0.00450338
0.00590712
0.00625924
0.00574646
0.0056125
0.00702974
0.00670763
0.00661815
0.00701526
0.00802375
0.0136091
0.00334041
0.00245522
0.00614506
0.00390829
0.00589976
0.00677751
0.00908358
0.00846156
0.00807238
0.00718621
0.00712232
0.00607596
0.00481327
0.00426944
0.00401178
0.00439605
0.00483633
0.00510958
0.00522567
0.00556764
0.00665199
0.00696974
0.00685205
0.00752598
0.0117708
0.00402231
0.00270775
0.00928623
0.0035134
0.00638595
0.0165008
0.0247572
0.0435483
0.0449048
0.0364201
0.0258469
0.0182915
0.0134974
0.00967467
0.00769093
0.00609789
0.00616962
0.00597855
0.00536209
0.00532455
0.00534115
0.00600415
0.00623585
0.00639992
0.00802403
0.00867969
0.00647389
0.00435813
0.0046701
0.00619247
0.0106729
0.0124959
0.0189695
0.0220285
0.0222948
0.024486
0.0285141
0.0313715
0.0334703
0.0379622
0.0414434
0.0444742
0.0477589
0.0504615
0.0524773
0.0541941
0.0562197
0.0583697
0.0603355
0.0642145
0.00957174
0.00598332
0.00832249
0.0150669
0.0165204
0.0180804
0.0212966
0.0227311
0.0269832
0.0305045
0.0334481
0.0363172
0.0413325
0.0473423
0.0524939
0.0598687
0.0649096
0.0692986
0.0768757
0.0814785
0.0849959
0.0865302
0.0912985
0.0945502
0.0983159
0.00378019
0.00179664
0.00915351
0.0161139
0.0164879
0.0204921
0.0299506
0.0288309
0.0307536
0.0333257
0.0310844
0.0330344
0.0367147
0.037254
0.0367006
0.0342709
0.0309182
0.0301818
0.0286513
0.0289789
0.0291176
0.030143
0.0300528
0.029444
0.0296605
0.00289812
0.00152754
0.00661203
0.0121577
0.0130089
0.0238291
0.0222358
0.021858
0.0176286
0.0149998
0.0117028
0.0101133
0.0107088
0.0116915
0.0124948
0.0134684
0.0145388
0.0139116
0.014288
0.0132113
0.0132744
0.0131438
0.0137666
0.0162861
0.0193257
0.00283468
0.00157163
0.00496779
0.00635615
0.0127348
0.0167107
0.0159398
0.0147008
0.0145542
0.0115126
0.00796112
0.00630208
0.00559764
0.00522977
0.00492352
0.00571444
0.00514069
0.00501965
0.00470936
0.00538958
0.00672148
0.00817567
0.00840902
0.0124249
0.019083
0.0028196
0.0021189
0.00362061
0.00558199
0.00946913
0.0115277
0.0106326
0.0110805
0.0118577
0.010511
0.00928054
0.00710096
0.00567948
0.00495107
0.0041842
0.00397015
0.00426847
0.004148
0.00406561
0.00394983
0.00393671
0.00645494
0.00735685
0.0135809
0.0278289
0.00283954
0.00215537
0.00351588
0.00447825
0.00496312
0.00682903
0.00733811
0.00822386
0.00776207
0.00808446
0.00831012
0.00826292
0.00676015
0.00576574
0.00459484
0.00647452
0.00523378
0.00459446
0.00425959
0.00468485
0.00558623
0.00821621
0.00939296
0.0258973
0.0498632
0.00286332
0.00230588
0.00338099
0.00325279
0.00303736
0.00300534
0.0037894
0.00558744
0.00600861
0.00622287
0.00703874
0.00720396
0.00816748
0.00725827
0.00950194
0.0096059
0.00787075
0.00849947
0.0082147
0.00766251
0.0081075
0.00938598
0.0106039
0.0386314
0.0692784
0.00290176
0.00195461
0.00332889
0.0031788
0.00247475
0.00204903
0.00215847
0.00274183
0.00370933
0.00571421
0.00685089
0.0081448
0.00786868
0.00868384
0.00946858
0.00813702
0.00943944
0.00838293
0.00799
0.0082965
0.00902027
0.0109969
0.0129128
0.0511492
0.0762754
0.00288833
0.00162839
0.0030544
0.00299214
0.00229105
0.0018188
0.0018845
0.0017545
0.00285742
0.00389792
0.00542808
0.00624909
0.00680117
0.00771534
0.00722816
0.00829128
0.00741197
0.00746409
0.00811584
0.00889708
0.00983192
0.0130301
0.0146622
0.050011
0.0879697
0.00322137
0.00142966
0.00270768
0.00253832
0.00194902
0.00172915
0.00160596
0.00173538
0.00221313
0.00335878
0.00423606
0.00454505
0.00514674
0.00549622
0.00560305
0.00576883
0.00536685
0.00597454
0.00667585
0.00810325
0.00944991
0.0128735
0.0145047
0.0476993
0.0888655
0.00325117
0.00140927
0.00286783
0.00259491
0.00199668
0.00168436
0.00174759
0.00173946
0.00190873
0.00241848
0.00292182
0.0031672
0.00370472
0.00367444
0.00343507
0.003463
0.00373919
0.00459001
0.00570888
0.00692092
0.00871487
0.0133161
0.0142483
0.0508383
0.093453
0.00327166
0.00141275
0.00269551
0.00258829
0.00216423
0.00197551
0.00164554
0.00149576
0.00150594
0.00171758
0.00193235
0.00258803
0.00274425
0.00263138
0.00270235
0.00274601
0.00316949
0.00391909
0.00502876
0.00615186
0.00760595
0.0112167
0.0134412
0.0449675
0.0962047
0.00329859
0.00140575
0.00242179
0.00225499
0.00219083
0.00220707
0.00165563
0.00130231
0.00127964
0.00129831
0.00140218
0.00182428
0.00216671
0.00210015
0.00206815
0.002205
0.0027211
0.00333944
0.00438475
0.00536704
0.00651625
0.00894672
0.0119502
0.0459835
0.109285
0.00338054
0.00161299
0.00201232
0.00204725
0.00261212
0.00216345
0.00148129
0.00130897
0.00121807
0.00126127
0.00127285
0.00142364
0.00155745
0.0016477
0.00170301
0.00186098
0.00235453
0.00307233
0.00378631
0.0047899
0.00582507
0.00737351
0.010609
0.0456588
0.110864
0.00364566
0.00144257
0.00151117
0.00178727
0.00294157
0.00230818
0.00153997
0.00144878
0.00132006
0.00132443
0.00137926
0.00137027
0.00135654
0.00138563
0.00147984
0.00155639
0.00187462
0.00269469
0.00329879
0.00428864
0.00533559
0.00640591
0.00909199
0.034372
0.108412
0.00369316
0.00170813
0.00142748
0.00218822
0.00269568
0.0020957
0.00154963
0.00146542
0.00128736
0.0013686
0.0013648
0.00150604
0.0015985
0.00146633
0.00137719
0.00130317
0.00142213
0.00195715
0.00246515
0.00318342
0.00406929
0.00532131
0.00758309
0.0279055
0.0957355
0.00356296
0.00140236
0.00145481
0.00339982
0.00293388
0.00203631
0.00170664
0.00146432
0.00142246
0.00142296
0.00135855
0.00147868
0.0016211
0.00145585
0.00133118
0.00140147
0.00124299
0.00143379
0.00187928
0.00241581
0.00305005
0.00453443
0.0063179
0.0229998
0.0816529
0.00330531
0.00142704
0.00199142
0.00436069
0.00325019
0.00215893
0.00168794
0.00163859
0.00138797
0.00126262
0.00125457
0.00150705
0.00155055
0.00152352
0.00145199
0.00137668
0.00138908
0.00134938
0.00151876
0.00195285
0.00252024
0.0041188
0.00534381
0.0127022
0.0593086
0.00325257
0.00173953
0.00242018
0.00486761
0.00321199
0.00229751
0.00203941
0.00202369
0.00180656
0.00156004
0.00121301
0.00128663
0.00149803
0.00161919
0.00136823
0.00152554
0.00156335
0.00154827
0.00142723
0.00159518
0.00204775
0.00361467
0.0046928
0.0073911
0.0350297
0.00316786
0.00194254
0.00293448
0.00493267
0.00310824
0.00282391
0.00253013
0.0034974
0.00338389
0.00278847
0.00261085
0.0021316
0.00174129
0.00180616
0.00174739
0.00164884
0.00147075
0.00168887
0.00152108
0.00162117
0.00168889
0.00287889
0.00435938
0.00578812
0.0191705
0.00315338
0.00200211
0.00313713
0.00535548
0.00444393
0.00344692
0.00335567
0.00407882
0.00994519
0.00718611
0.0044479
0.00330297
0.00231979
0.00231658
0.0022809
0.00206976
0.00168785
0.00196884
0.00168489
0.00181077
0.0019801
0.00215644
0.00391715
0.00516768
0.0107579
0.00288036
0.00210951
0.00338252
0.00681977
0.00542318
0.00468279
0.00455799
0.00751181
0.00936484
0.00910949
0.00677153
0.00483415
0.00344607
0.00246789
0.00244453
0.00255622
0.00203408
0.00223604
0.00217694
0.0019981
0.00220208
0.00228999
0.00344727
0.00453017
0.00792204
0.00282851
0.00224468
0.00571351
0.00760406
0.012269
0.0151495
0.0180704
0.0188429
0.0193321
0.020233
0.0188379
0.0128975
0.0072336
0.00416591
0.00354278
0.00325357
0.00246103
0.00199485
0.00220409
0.00223209
0.00211414
0.00234359
0.002631
0.00421231
0.00775721
0.00327069
0.0035141
0.0104214
0.00998283
0.0231587
0.0611198
0.129371
0.136599
0.117816
0.0837267
0.0566591
0.0382156
0.0253314
0.0154296
0.00896938
0.00498167
0.00420705
0.0031695
0.00301323
0.00266764
0.00229836
0.00265411
0.00265342
0.00324956
0.00592986
0.00927774
0.00884508
0.00724797
0.0101308
0.0181294
0.0277348
0.0426515
0.0479341
0.0529271
0.0498378
0.0451738
0.0450013
0.0478282
0.0465116
0.0455719
0.0461972
0.0462979
0.0480355
0.0455953
0.0477796
0.0475414
0.0452444
0.0478142
0.0479892
0.0498239
0.00922667
0.00674493
0.00993152
0.0116952
0.0125785
0.017361
0.0208383
0.0232489
0.0267538
0.0327662
0.0373702
0.0428126
0.0512982
0.0548871
0.0577513
0.0615528
0.0664941
0.071687
0.0792884
0.0832902
0.0891777
0.0939095
0.0973944
0.0981883
0.103532
0.00406958
0.00153356
0.00538836
0.011964
0.01718
0.0207675
0.0249605
0.0245799
0.032145
0.0359418
0.0319854
0.0318464
0.0357979
0.0417904
0.0536899
0.050597
0.0442977
0.0368713
0.0309901
0.0303997
0.0306303
0.0299821
0.0292029
0.0274813
0.0270159
0.00290332
0.00140593
0.0047343
0.00706219
0.00998242
0.0165478
0.0174686
0.0133938
0.0121221
0.0083323
0.0076816
0.00903725
0.0116402
0.0148108
0.0158811
0.017574
0.0185265
0.0169732
0.018162
0.0164438
0.0151355
0.0144885
0.0140874
0.0147238
0.0178972
0.00283096
0.00193025
0.00407507
0.00460894
0.00814255
0.0120839
0.00934902
0.00912015
0.0071371
0.00655592
0.00537497
0.00431331
0.00463191
0.00489895
0.00585632
0.00687941
0.00629507
0.00634691
0.00635924
0.00505292
0.00495191
0.00539341
0.00594073
0.00946187
0.020699
0.00284293
0.00192006
0.0036145
0.00422837
0.00609105
0.00732797
0.00756544
0.00683264
0.00652027
0.00618778
0.0043518
0.00361579
0.00316796
0.00297387
0.00285684
0.00292258
0.00288664
0.00281665
0.00272114
0.00274565
0.00276313
0.00401632
0.00461467
0.00849179
0.0257079
0.0028641
0.00212215
0.00347334
0.00351119
0.00402504
0.00515968
0.00446222
0.00497646
0.00541814
0.00566615
0.00481284
0.00384561
0.00326638
0.00254289
0.00294532
0.00283528
0.00275
0.00234562
0.00238807
0.00250277
0.00256709
0.00422597
0.00542169
0.0162784
0.0469384
0.00287924
0.00187313
0.00319158
0.00307017
0.00293151
0.00283132
0.00285685
0.0027411
0.00359975
0.00374136
0.00546838
0.00449251
0.0031109
0.00343781
0.00332467
0.00248776
0.00273128
0.00241493
0.00235895
0.00252462
0.0027048
0.0057536
0.00650271
0.0267277
0.0690531
0.00315658
0.00147846
0.00236525
0.00244618
0.00214855
0.00193297
0.0019193
0.00211493
0.00286918
0.00311193
0.00345185
0.00298493
0.00277198
0.00262357
0.00258726
0.00276737
0.00257422
0.0024777
0.00245194
0.00261829
0.00269967
0.00593862
0.00666243
0.0467314
0.100202
0.00315271
0.00136244
0.00210255
0.00220364
0.00185097
0.00171059
0.00173679
0.00198047
0.00210385
0.00257885
0.00271688
0.00277291
0.00240945
0.00226903
0.00201247
0.0021894
0.00207681
0.00213876
0.00214286
0.00247367
0.00262808
0.00502375
0.00642736
0.0511631
0.117908
0.00315974
0.00127765
0.00184803
0.00191307
0.00174738
0.00164774
0.00175895
0.0017739
0.00176261
0.00188441
0.00201251
0.00212365
0.00204071
0.00181419
0.00167578
0.00177391
0.00169968
0.00174694
0.00194833
0.00204949
0.0027018
0.00332902
0.00576521
0.0491246
0.136708
0.00318356
0.00116359
0.00159507
0.00159426
0.00163752
0.00192994
0.00192553
0.00176137
0.00166048
0.00160073
0.0015889
0.00153817
0.00153881
0.00149845
0.00145598
0.0014104
0.00149593
0.00160656
0.00182493
0.00189592
0.00285566
0.00357757
0.00724614
0.026512
0.14483
0.00318928
0.00114278
0.00140057
0.00166536
0.00187676
0.00213045
0.00166932
0.00124785
0.00116456
0.00116471
0.00123901
0.00132847
0.00130785
0.00126823
0.00129681
0.00127687
0.00133839
0.00147784
0.00168681
0.00186481
0.00244969
0.00370819
0.00708316
0.0387195
0.178895
0.00320093
0.00116022
0.00117736
0.00173055
0.0035272
0.00271969
0.00177061
0.00124804
0.00114707
0.00119501
0.00115002
0.00110122
0.00117715
0.00118209
0.00115325
0.00114115
0.00122406
0.00125491
0.00142286
0.00163745
0.00210032
0.0029918
0.00813707
0.0331993
0.219909
0.00322948
0.00117145
0.00109912
0.00215262
0.00326895
0.0021628
0.00149063
0.00120076
0.00114204
0.00117791
0.0011985
0.00116921
0.00132816
0.00124138
0.0011295
0.00114101
0.0011431
0.00115015
0.00123342
0.00142941
0.00178634
0.0029738
0.010836
0.0301073
0.243564
0.00324629
0.00119722
0.000986707
0.00387861
0.00377055
0.00226211
0.00151036
0.00137778
0.00134535
0.00134644
0.0014816
0.00137113
0.00135762
0.00128776
0.00117182
0.00108932
0.00109711
0.00107638
0.00109944
0.00122539
0.00156887
0.00217925
0.00830507
0.042042
0.257542
0.00323926
0.00125634
0.00113932
0.00449904
0.00326461
0.00225938
0.00171964
0.00161547
0.00154755
0.00135752
0.00159338
0.00176343
0.00156733
0.00136881
0.00113581
0.000995319
0.000988092
0.000965434
0.000960909
0.00107205
0.00130032
0.00209843
0.00593053
0.03804
0.247102
0.00320097
0.00132765
0.00251599
0.00465565
0.00312812
0.0020178
0.00186998
0.00202342
0.00180719
0.00153903
0.00145384
0.00156717
0.00151952
0.00153555
0.00134693
0.0010502
0.000834927
0.000948555
0.000858043
0.000942951
0.00112586
0.00184357
0.00454673
0.0443015
0.210646
0.0031558
0.00141515
0.00402772
0.00472896
0.0034329
0.00211782
0.00218262
0.0020355
0.00180574
0.00143285
0.00126731
0.0012782
0.00134705
0.00119396
0.00117288
0.000987297
0.000955798
0.000928812
0.000931301
0.00086404
0.00107492
0.00142116
0.00378864
0.0355508
0.1693
0.00312949
0.00147621
0.00529577
0.00475353
0.00313509
0.0027727
0.00299731
0.00319245
0.0029259
0.00310302
0.00263298
0.00186182
0.00128078
0.00137465
0.00131092
0.0010599
0.000912547
0.000875223
0.000893264
0.000918221
0.000932423
0.00124935
0.00253052
0.017377
0.124198
0.00313943
0.0014958
0.00588463
0.00532105
0.00330318
0.00299114
0.00355731
0.00740938
0.00782982
0.00605731
0.0047548
0.00268797
0.00167289
0.00125794
0.00108834
0.00115009
0.00111667
0.00103307
0.000891713
0.00091103
0.00092727
0.00117875
0.00184916
0.00574721
0.0623172
0.00309581
0.00174667
0.00610191
0.00567776
0.0037459
0.00377059
0.00494541
0.00992838
0.0176786
0.0145758
0.0102232
0.00639587
0.00307822
0.00170727
0.00116527
0.00098674
0.00114258
0.0010296
0.00106574
0.00104165
0.000974378
0.00110648
0.00172301
0.00293312
0.0270832
0.00305272
0.00227889
0.00570022
0.00685288
0.00700551
0.00630385
0.00812532
0.0165831
0.0189404
0.0193233
0.0167968
0.0108614
0.00616845
0.00335267
0.00193713
0.00134753
0.00112435
0.000995609
0.00117
0.00107858
0.00110645
0.00108965
0.00176376
0.00256647
0.0118308
0.00293293
0.00299896
0.00504864
0.00908445
0.0152844
0.0283333
0.0329997
0.0404122
0.0513378
0.0667298
0.0597462
0.0419356
0.0223541
0.0103785
0.00441213
0.00219073
0.00151474
0.0010386
0.0010065
0.00111402
0.00100085
0.00116069
0.00164546
0.00248923
0.00724375
0.00309981
0.00519783
0.00908464
0.0167875
0.0299243
0.161242
0.238659
0.269694
0.239137
0.186285
0.154228
0.108628
0.0626405
0.0350594
0.017682
0.00833619
0.00412027
0.00240504
0.00170953
0.00149239
0.0014401
0.00146683
0.00155587
0.00201849
0.00447858
0.00938066
0.00903717
0.0101728
0.0177012
0.0226963
0.0533606
0.0694166
0.0693226
0.0635031
0.0579204
0.0548977
0.0543273
0.0550958
0.0621318
0.0605467
0.0523128
0.0477905
0.043931
0.0435997
0.0428083
0.0408593
0.0372285
0.0328252
0.0341819
0.0349245
0.00912596
0.00698432
0.0100084
0.0162126
0.0188837
0.0212336
0.0230531
0.0251399
0.0287636
0.0334658
0.0373984
0.0496456
0.0568326
0.0646937
0.0652987
0.0651649
0.0677472
0.0724808
0.0780134
0.0835159
0.0876898
0.0930974
0.0959596
0.0958336
0.102012
0.00364932
0.00121897
0.00219893
0.00814226
0.013183
0.0189851
0.0195326
0.0252538
0.0293905
0.0286787
0.0258242
0.0317596
0.0379812
0.0447411
0.0523209
0.0536835
0.0766595
0.0654002
0.0505096
0.0378986
0.0300207
0.0292329
0.0290627
0.0283889
0.0280814
0.00318156
0.00113719
0.00243554
0.00506854
0.00804703
0.0105128
0.011977
0.00890092
0.00897028
0.00639306
0.00613631
0.00857676
0.0113193
0.0152994
0.0197079
0.0259365
0.0340866
0.0329142
0.0261131
0.0216438
0.0204
0.0188756
0.0175305
0.0159859
0.0178471
0.00318051
0.00121466
0.00283348
0.00396737
0.00594315
0.00664524
0.00709421
0.0075435
0.0059141
0.00536467
0.00393558
0.00370616
0.00459058
0.0060078
0.00828043
0.0143077
0.0152713
0.0137154
0.0109144
0.00950962
0.0086331
0.0078444
0.00772824
0.00889527
0.0175942
0.00317934
0.00140643
0.00253079
0.00320664
0.00422062
0.00610007
0.00659037
0.00844634
0.00666764
0.00415929
0.00396956
0.00329622
0.00294314
0.00320606
0.0037219
0.00432655
0.00431232
0.00472485
0.00405355
0.00401306
0.00386252
0.00394242
0.00462453
0.00604539
0.0254021
0.00317235
0.00143019
0.00229137
0.0027019
0.00288389
0.0042713
0.00472447
0.00393501
0.0060278
0.00561693
0.00395262
0.00371579
0.00341447
0.00336106
0.00323452
0.00316314
0.00324044
0.00252312
0.00286023
0.00244177
0.00253439
0.00293092
0.00370949
0.00876305
0.0507499
0.00316309
0.00137235
0.00212841
0.00237722
0.00252327
0.00270205
0.00294012
0.00277949
0.00489228
0.00425775
0.00327935
0.00361699
0.00343608
0.00322851
0.00316272
0.00223531
0.00244816
0.00234963
0.00220802
0.00184561
0.00198304
0.00243352
0.00418759
0.012644
0.106866
0.00313695
0.00129717
0.00179301
0.00193129
0.00188717
0.00188373
0.00232723
0.00244381
0.00227843
0.00188353
0.00232128
0.0018169
0.00207904
0.00243334
0.00195754
0.00214149
0.00163108
0.00178972
0.00159604
0.00152988
0.00183139
0.00211954
0.0060276
0.019561
0.228098
0.00311994
0.00140672
0.00173966
0.00171547
0.00175399
0.00191881
0.00224793
0.00230017
0.00217441
0.00191894
0.00169906
0.00169381
0.00144634
0.00173888
0.00164593
0.00145244
0.00161254
0.00164427
0.00138451
0.00164486
0.00185731
0.00260764
0.011382
0.0339984
0.377294
0.00315409
0.00131931
0.00136387
0.00148583
0.00164049
0.00219021
0.0020386
0.00170041
0.00146792
0.00148358
0.0014111
0.00133907
0.00116314
0.00130607
0.00148589
0.00150087
0.00128259
0.00119297
0.00143267
0.00143874
0.00150731
0.00304049
0.0204498
0.0570958
0.519618
0.00319458
0.00110325
0.00117233
0.00140125
0.00222658
0.00243026
0.00193848
0.00143
0.00114672
0.00108933
0.001087
0.00101442
0.00111537
0.00108509
0.00109471
0.00104484
0.00122151
0.0013355
0.00121665
0.00122388
0.001735
0.0033579
0.0304059
0.0697464
0.608328
0.00320566
0.00109988
0.000938935
0.001741
0.00375153
0.00278301
0.00173872
0.00123598
0.00105243
0.0011471