/*--------------------------------*- C++ -*----------------------------------*\
  =========                 |
  \\      /  F ield         | OpenFOAM: The Open Source CFD Toolbox
   \\    /   O peration     | Website:  https://openfoam.org
    \\  /    A nd           | Version:  11
     \\/     M anipulation  |
\*---------------------------------------------------------------------------*/
FoamFile
{
    format      ascii;
    class       volScalarField;
    location    "40";
    object      nut;
}
// * * * * * * * * * * * * * * * * * * * * * * * * * * * * * * * * * * * * * //

dimensions      [0 2 -1 0 0 0 0];

internalField   nonuniform List<scalar> 
17196
(
0.0868146
0.0257996
0.0222487
0.0242938
0.0251
0.0255983
0.0312297
0.0528367
0.0461557
0.0449015
0.0584867
0.0760297
0.0722479
0.0663091
0.0659777
0.0659319
0.0672989
0.0654031
0.0649428
0.065249
0.0661503
0.0685482
0.0713723
0.0705427
0.0725457
0.168382
0.0535087
0.0337272
0.043158
0.0539269
0.0511062
0.0536682
0.0762116
0.0585654
0.0951558
0.127785
0.11997
0.107825
0.0980902
0.0969178
0.0979344
0.0987457
0.0986939
0.0986186
0.10399
0.1054
0.102299
0.10357
0.103029
0.112057
0.160321
0.0616151
0.0325081
0.0263877
0.0412774
0.0416024
0.0475409
0.0684179
0.0681724
0.108602
0.135954
0.121567
0.104644
0.0958013
0.0917005
0.0904465
0.0909476
0.0902556
0.0945797
0.098158
0.102451
0.106382
0.111694
0.112718
0.121345
0.203797
0.0696961
0.0372119
0.028201
0.0360606
0.0345937
0.050294
0.06184
0.0777529
0.101915
0.130199
0.114487
0.102053
0.0929139
0.0925509
0.0897018
0.0890121
0.0911809
0.0933746
0.0943013
0.097932
0.100665
0.105096
0.10801
0.115161
0.208513
0.0816208
0.0335515
0.0249255
0.0205311
0.0270314
0.0479582
0.066107
0.0773723
0.0933237
0.114457
0.121565
0.106118
0.100386
0.0910429
0.084676
0.0862406
0.0864172
0.0867276
0.0898894
0.0928404
0.0974951
0.100054
0.100459
0.107338
0.206251
0.0901647
0.0233739
0.0177185
0.0189401
0.0239586
0.0487128
0.0671779
0.0807401
0.0863715
0.0895133
0.106916
0.111896
0.10688
0.108955
0.104433
0.101279
0.100755
0.0995039
0.096691
0.102647
0.10488
0.103737
0.10574
0.122289
0.199836
0.0571739
0.0162998
0.0154061
0.018909
0.0248349
0.0404038
0.0534799
0.0576486
0.0730636
0.0770949
0.0830682
0.0967151
0.104308
0.109164
0.112111
0.111247
0.112512
0.113942
0.112495
0.111047
0.11152
0.116556
0.116804
0.137444
0.218605
0.0382316
0.0165316
0.0174855
0.0231466
0.0267895
0.0312682
0.0398137
0.0412014
0.0484862
0.0585557
0.0663683
0.0746665
0.084798
0.0926122
0.101942
0.107227
0.109461
0.11176
0.111672
0.113284
0.115021
0.118629
0.128341
0.149126
0.245278
0.0218091
0.0130113
0.0175956
0.0244541
0.0245346
0.0267382
0.0252793
0.0265496
0.0279177
0.0377371
0.0495896
0.0577276
0.0688507
0.0747718
0.0836252
0.0916996
0.097232
0.100776
0.103049
0.105195
0.109415
0.115629
0.127591
0.152813
0.204461
0.0201234
0.0149419
0.0196681
0.0239765
0.0219228
0.0203948
0.0191397
0.0196148
0.0195753
0.0226067
0.0319797
0.0422987
0.0533283
0.0627479
0.0690629
0.0725615
0.0760049
0.0790408
0.0847699
0.088614
0.0986814
0.107828
0.123738
0.149878
0.115802
0.0185367
0.0166274
0.0185669
0.023452
0.0193918
0.0141234
0.0132775
0.0143432
0.0163528
0.0193812
0.0243162
0.0309283
0.0390893
0.048459
0.0586623
0.0664756
0.0715331
0.0730092
0.0759363
0.0781875
0.0900779
0.0983524
0.119952
0.143353
0.0975204
0.0211626
0.0158618
0.0162065
0.0204508
0.0175407
0.0123514
0.0106463
0.0103469
0.0123412
0.0143272
0.0181349
0.0223361
0.0291639
0.0359123
0.0427158
0.0506704
0.0612027
0.0704655
0.0775236
0.0789165
0.0893442
0.0923328
0.12025
0.136657
0.0840892
0.0235647
0.0150881
0.0148529
0.0180804
0.0152472
0.0106349
0.00943641
0.00962582
0.0100379
0.0121128
0.0145981
0.0170553
0.0216755
0.0266962
0.0321684
0.0385425
0.0469255
0.0570861
0.069407
0.0817962
0.0966356
0.107607
0.127356
0.139615
0.0682888
0.022089
0.01429
0.0149453
0.0169492
0.0131044
0.00842367
0.00784806
0.00807286
0.00942436
0.0115255
0.0142544
0.0158673
0.0206544
0.0238618
0.0307161
0.035967
0.0431904
0.0515657
0.0586662
0.0665005
0.0771607
0.092393
0.106571
0.159143
0.0641307
0.0188603
0.0140854
0.0177421
0.0181627
0.0116539
0.00762675
0.00685813
0.00662655
0.00896585
0.0102566
0.0138076
0.0158664
0.0200573
0.0236998
0.0290806
0.0345098
0.0407537
0.0503381
0.0565968
0.0635763
0.0694946
0.0762086
0.0828122
0.111819
0.0794983
0.0232302
0.0118467
0.0150735
0.0180111
0.0102287
0.00707327
0.0060559
0.00686987
0.00871582
0.0107227
0.014107
0.016321
0.019793
0.0235468
0.0277579
0.0334946
0.0388728
0.046662
0.0536033
0.0608491
0.0671463
0.0718882
0.0762441
0.092347
0.110682
0.0280311
0.0175937
0.0131611
0.0152225
0.00862724
0.00654175
0.00588091
0.00686777
0.00865148
0.0107186
0.0141308
0.0168117
0.0212386
0.0240666
0.027504
0.0323293
0.037786
0.0441796
0.0492252
0.0545304
0.0601934
0.0665482
0.0720618
0.0831926
0.137037
0.0239116
0.0215641
0.0164775
0.0120138
0.00760263
0.00600017
0.00577607
0.00681701
0.00828274
0.0107861
0.0139913
0.0167559
0.021473
0.024428
0.0284847
0.033049
0.0372366
0.0400875
0.0454503
0.0490805
0.0517167
0.0619891
0.0653582
0.0714074
0.129515
0.0291708
0.0168985
0.0146242
0.0116302
0.00726945
0.00587181
0.00562081
0.0059558
0.00687533
0.0093003
0.012676
0.0160778
0.0208296
0.0236779
0.0283393
0.0325245
0.0365109
0.0399635
0.0430096
0.0519015
0.055286
0.0576764
0.0585518
0.066253
0.133571
0.0267703
0.0136107
0.0150724
0.0114127
0.00740891
0.00658085
0.00617548
0.00627054
0.00726236
0.00818999
0.0110974
0.0139749
0.0192042
0.0239533
0.0287817
0.0342688
0.0377438
0.0406961
0.0422518
0.0467273
0.0491205
0.0522296
0.0537753
0.0610039
0.124645
0.0205084
0.00911936
0.0137269
0.0128346
0.00785886
0.00730907
0.00735647
0.00716923
0.00717135
0.00710963
0.00865713
0.0106072
0.0152737
0.0193028
0.0258238
0.0327194
0.0378672
0.0470999
0.0509036
0.0531708
0.055406
0.0615397
0.0620857
0.0626517
0.112315
0.0211026
0.00711481
0.00985276
0.011975
0.00928518
0.00646153
0.00745937
0.00673297
0.00681351
0.00798263
0.00969779
0.0116585
0.014527
0.0178908
0.0211616
0.0249206
0.0289895
0.0371922
0.0431048
0.0465763
0.0535694
0.0522323
0.0561165
0.059433
0.127162
0.0148646
0.0074319
0.00752862
0.0114463
0.0108354
0.00897076
0.00826931
0.00806549
0.00768287
0.00855845
0.0100118
0.0117404
0.0134178
0.0161814
0.0185965
0.0211987
0.024292
0.0261182
0.0281436
0.0306057
0.0321654
0.0369797
0.0378972
0.0407529
0.113616
0.00961026
0.00695943
0.00867565
0.0115955
0.0145541
0.0119028
0.0122005
0.0120759
0.0115732
0.0113946
0.0125339
0.0137231
0.0157268
0.017739
0.0200891
0.0226648
0.0256398
0.0280682
0.0304457
0.0332673
0.0354206
0.03775
0.037463
0.0415115
0.0685971
0.0160521
0.00730012
0.0109575
0.0172395
0.0164764
0.0143722
0.0133498
0.0141512
0.0148838
0.0155655
0.0176263
0.0192809
0.0220519
0.0242899
0.0269857
0.0297675
0.0325283
0.0353989
0.0376086
0.0397902
0.0412247
0.043996
0.0445526
0.0467168
0.0913717
0.0377826
0.0331705
0.0355193
0.0367249
0.0417219
0.0525066
0.0701472
0.0959618
0.104164
0.082796
0.0675555
0.0610941
0.0635668
0.0666521
0.0716363
0.0761019
0.0792058
0.0818584
0.0871402
0.0912632
0.0990541
0.10471
0.108634
0.11215
0.0142621
0.0221012
0.153217
0.200234
0.243203
0.164505
0.23192
0.299175
0.509988
0.430948
0.445638
0.377348
0.342183
0.288956
0.279747
0.262432
0.276498
0.280014
0.29386
0.285057
0.287833
0.307683
0.334506
0.348592
0.314713
0.0105675
0.0172298
0.0957302
0.302341
0.403705
0.385985
0.624256
0.587457
0.413349
0.44654
0.344308
0.291082
0.271734
0.268811
0.289577
0.303547
0.294173
0.321221
0.379882
0.422411
0.457863
0.488492
0.516573
0.544264
0.582173
0.0102004
0.0204974
0.0985019
0.225745
0.34792
0.588912
0.450115
0.43441
0.344941
0.38468
0.317323
0.257479
0.230616
0.19745
0.186903
0.175969
0.178111
0.260432
0.248688
0.329111
0.310966
0.318195
0.336373
0.491396
0.5313
0.0105322
0.0205792
0.0909672
0.196398
0.231883
0.443196
0.349742
0.447115
0.353765
0.378788
0.358854
0.257597
0.213935
0.18844
0.151495
0.158766
0.173421
0.186645
0.193297
0.242934
0.261909
0.315742
0.335529
0.483527
0.58318
0.0114742
0.0228125
0.0933142
0.209712
0.253541
0.287011
0.27718
0.30841
0.308684
0.33077
0.252034
0.276178
0.271287
0.241096
0.245272
0.230036
0.281816
0.322549
0.281919
0.321118
0.291895
0.37169
0.409575
0.678966
0.853022
0.0120886
0.0218383
0.0940434
0.131023
0.111009
0.109901
0.141763
0.20468
0.24591
0.216224
0.264487
0.277581
0.306949
0.301936
0.306973
0.356415
0.402797
0.421237
0.458963
0.450461
0.512452
0.525362
0.554838
0.934168
1.19621
0.012522
0.0174827
0.0998725
0.12201
0.0779104
0.0604338
0.0514402
0.086209
0.107619
0.155716
0.199433
0.232613
0.279587
0.339293
0.377192
0.44817
0.496253
0.568704
0.632789
0.637182
0.62879
0.536238
0.58192
0.692869
0.926028
0.0126203
0.016115
0.0947329
0.107796
0.0606629
0.0404494
0.0291554
0.0298708
0.0547409
0.0781584
0.123098
0.163146
0.208324
0.272889
0.346995
0.438564
0.527299
0.519806
0.522303
0.506762
0.582302
0.561002
0.606621
0.779684
0.870925
0.0124112
0.0136662
0.0932136
0.0923415
0.0471723
0.0316782
0.0229709
0.0240557
0.0238927
0.0407254
0.0639099
0.106427
0.16276
0.225615
0.29408
0.374422
0.343215
0.319842
0.305288
0.328887
0.358947
0.407079
0.455638
0.612764
0.717768
0.0133393
0.00973514
0.0999095
0.0858209
0.0436311
0.0260613
0.0202065
0.0208166
0.0222106
0.0272854
0.0358033
0.0534071
0.0876177
0.153574
0.237509
0.281783
0.260756
0.24103
0.237885
0.237384
0.272222
0.279763
0.320791
0.427828
0.592285
0.012907
0.00965191
0.0896138
0.0842785
0.0399412
0.0223093
0.0203685
0.0195366
0.0200129
0.0238279
0.0291711
0.0384337
0.0519254
0.0799853
0.152143
0.237749
0.228984
0.270319
0.305031
0.33415
0.304156
0.26078
0.300904
0.331543
0.516066
0.0106535
0.0184026
0.0856039
0.0659776
0.0344548
0.0231246
0.0187763
0.0184314
0.0190555
0.022222
0.0272479
0.0348128
0.04492
0.0614611
0.0955181
0.171655
0.222947
0.249449
0.272147
0.28038
0.315359
0.308869
0.302964
0.263669
0.483884
0.0140707
0.020106
0.061375
0.0486885
0.0305207
0.0198914
0.0174719
0.0176383
0.0185809
0.0220341
0.0257863
0.0315703
0.0387292
0.0485721
0.0674676
0.109324
0.174702
0.215214
0.193992
0.227246
0.2128
0.22195
0.226322
0.222996
0.441919
0.0184074
0.0220232
0.0394628
0.0374575
0.0290406
0.0209463
0.0168277
0.0176166
0.0181926
0.020814
0.0252379
0.0301684
0.0383892
0.0455341
0.0604308
0.0842429
0.136327
0.206002
0.199059
0.194541
0.217159
0.18704
0.213065
0.213752
0.400286
0.0202049
0.0195537
0.025809
0.0332831
0.0256593
0.0195673
0.0172324
0.016951
0.0186087
0.0193003
0.023116
0.0273331
0.037226
0.0415987
0.0521573
0.0701118
0.115833
0.172797
0.187848
0.204152
0.217334
0.207849
0.216565
0.220879
0.45881
0.014722
0.0137335
0.0268933
0.0339191
0.0261378
0.0185481
0.0187761
0.0185253
0.0204484
0.0206778
0.0258916
0.0326528
0.0415465
0.051819
0.0581917
0.0653293
0.0993888
0.137921
0.175882
0.193187
0.203796
0.206549
0.219987
0.257082
0.416962
0.00900704
0.0139419
0.0349296
0.0333902
0.0275143
0.0202613
0.0182936
0.0200892
0.0203351
0.0207866
0.0273955
0.0408509
0.0486993
0.0611562
0.0730974
0.0885787
0.104147
0.133357
0.158445
0.15934
0.183602
0.191018
0.201608
0.239654
0.372324
0.0106986
0.0228975
0.0534015
0.0466024
0.0282938
0.0214991
0.0199076
0.023041
0.0246278
0.0249255
0.0307243
0.0448793
0.070529
0.0833591
0.0853473
0.0983825
0.125354
0.13187
0.155532
0.153617
0.172598
0.180324
0.193021
0.206291
0.316436
0.0087286
0.0234947
0.0646759
0.0548093
0.0288072
0.0232167
0.0252015
0.0308814
0.0330868
0.0321661
0.0359169
0.0417727
0.0806176
0.102319
0.123489
0.147085
0.163395
0.185971
0.182272
0.160201
0.167615
0.167148
0.172304
0.180965
0.250076
0.00760245
0.0214684
0.074863
0.0692505
0.035726
0.0252652
0.0307054
0.0323825
0.0343853
0.0498335
0.0530977
0.0528706
0.0686795
0.124083
0.166105
0.192307
0.190931
0.152635
0.176651
0.202826
0.178512
0.153207
0.149714
0.16599
0.197933
0.00744476
0.0238906
0.0945039
0.0634694
0.0311034
0.0339753
0.0334987
0.0441997
0.0487494
0.0440341
0.0524953
0.048845
0.0621201
0.089071
0.114253
0.187227
0.205244
0.180146
0.161146
0.185775
0.21573
0.20297
0.1719
0.162007
0.208694
0.00917368
0.0135566
0.113498
0.0765196
0.0502509
0.0466213
0.069303
0.0708607
0.0738235
0.0744724
0.0809044
0.0784375
0.0743134
0.0819398
0.0955095
0.121131
0.163153
0.172339
0.151526
0.145715
0.187775
0.229766
0.229246
0.230973
0.284044
0.0124637
0.0196257
0.0920373
0.0981018
0.0670751
0.123511
0.144249
0.254895
0.286172
0.262133
0.212569
0.175643
0.152747
0.130855
0.126688
0.124647
0.14528
0.139265
0.111908
0.102822
0.091154
0.103124
0.109913
0.116482
0.123262
0.0714277
0.0349654
0.0204342
0.0106045
0.0146781
0.0233663
0.0228841
0.0290876
0.0294716
0.0271705
0.0281945
0.0319285
0.0349012
0.0375589
0.0433801
0.0484238
0.0531561
0.0582697
0.0626174
0.0659276
0.0684838
0.0709006
0.0726976
0.0742682
0.0744394
0.0977616
0.0414486
0.0341354
0.0485174
0.0501978
0.0563916
0.072854
0.0819525
0.0999397
0.0878579
0.0712968
0.0626514
0.0620636
0.0649439
0.06784
0.0743065
0.0783312
0.0821072
0.0902314
0.0954221
0.0999735
0.102854
0.110487
0.115521
0.124203
0.0121291
0.0126653
0.0876603
0.196911
0.251103
0.296886
0.405047
0.349669
0.40953
0.35431
0.29731
0.280748
0.248336
0.248511
0.241084
0.237369
0.232759
0.255813
0.22275
0.222444
0.227064
0.239867
0.245343
0.272073
0.306978
0.00861298
0.00958496
0.0773763
0.213907
0.215584
0.329589
0.344778
0.383838
0.266518
0.209914
0.18139
0.16363
0.184094
0.218443
0.238576
0.252998
0.276999
0.278655
0.308132
0.305696
0.329116
0.344314
0.361778
0.390002
0.456386
0.00835739
0.010068
0.0687685
0.139664
0.252816
0.289783
0.256992
0.260148
0.208988
0.154976
0.119994
0.106645
0.104964
0.105277
0.105302
0.127983
0.119578
0.122981
0.122265
0.148369
0.195436
0.243218
0.259215
0.379959
0.582672
0.00824004
0.0128519
0.0494018
0.112373
0.216743
0.288445
0.197469
0.162108
0.182726
0.135865
0.124168
0.108954
0.0992857
0.096174
0.089431
0.0925658
0.106749
0.111587
0.117583
0.121891
0.128261
0.218277
0.252378
0.445132
0.900174
0.00824398
0.0129497
0.0481363
0.101859
0.116027
0.158037
0.140977
0.141939
0.105813
0.118779
0.109668
0.112004
0.104429
0.101278
0.0906093
0.143613
0.12534
0.12062
0.123359
0.147039
0.185316
0.285488
0.320699
0.84524
1.50959
0.00837853
0.0136535
0.0430074
0.0679305
0.0597134
0.0601526
0.0656533
0.078069
0.0823688
0.0854075
0.0945734
0.09887
0.122132
0.119871
0.177481
0.200504
0.183816
0.220497
0.234603
0.229857
0.256475
0.291492
0.332861
1.11271
1.80879
0.00857471
0.011293
0.0397719
0.0657307
0.0517471
0.0351375
0.0339263
0.0369209
0.0468716
0.0688897
0.0842857
0.108898
0.117258
0.143998
0.172915
0.163564
0.20817
0.206989
0.195379
0.201539
0.234739
0.290589
0.350706
1.28239
1.79787
0.00853574
0.00951886
0.0348705
0.0557802
0.0431171
0.0309233
0.0267932
0.0227635
0.0372207
0.0478714
0.0644692
0.0796472
0.096114
0.125098
0.132608
0.170323
0.167007
0.186929
0.191082
0.222187
0.261982
0.32031
0.360407
1.11725
1.77004
0.00950109
0.0084976
0.0288603
0.0423246
0.0346062
0.0256379
0.0219523
0.0210775
0.0268492
0.039736
0.0518282
0.0616774
0.0802168
0.0975248
0.118435
0.118852
0.111927
0.133189
0.140446
0.169877
0.199502
0.277546
0.338049
0.909745
1.41898
0.00962716
0.0084106
0.0290722
0.0387485
0.0325662
0.0229609
0.0231502
0.0213885
0.0233287
0.0303312
0.0400141
0.0497862
0.0672511
0.0793133
0.0773521
0.0761707
0.0807622
0.0976984
0.135344
0.158668
0.215416
0.348519
0.361353
0.799628
1.29317
0.00967282
0.00841867
0.0267475
0.0361011
0.0304969
0.0267042
0.0196544
0.017718
0.0190773
0.0237206
0.0288898
0.0445011
0.0540405
0.0609996
0.067866
0.0733035
0.079578
0.0973658
0.131971
0.159401
0.201022
0.294464
0.352103
0.570178
1.19262
0.00968988
0.0079624
0.0233243
0.0303867
0.0316199
0.0245998
0.0184089
0.0159794
0.0171823
0.0193341
0.0231383
0.0338488
0.0451175
0.0486534
0.0566512
0.0636053
0.0802704
0.102654
0.140485
0.161166
0.188514
0.256208
0.340284
0.53855
1.20793
0.0098822
0.00887964
0.0183925
0.0271908
0.0295832
0.0205242
0.0164619
0.0164222
0.0166995
0.0193031
0.021748
0.0277489
0.0328978
0.0379067
0.0448402
0.0572464
0.0749458
0.0992803
0.126052
0.159927
0.193571
0.250774
0.351998
0.547017
1.16198
0.0107243
0.00789307
0.013402
0.0187175
0.0236042
0.0209253
0.017381
0.0184068
0.0181163
0.0199517
0.0226869
0.0257059
0.0284544
0.0336624
0.0393871
0.0484502
0.0629747
0.0917856
0.112845
0.144555
0.188873
0.231046
0.327224
0.550659
1.33316
0.010815
0.00956587
0.0123007
0.0198749
0.0205256
0.0201566
0.0180522
0.0186708
0.0174516
0.0204775
0.0225869
0.0280233
0.0342765
0.0343514
0.0382509
0.0404233
0.0518495
0.0741229
0.0960571
0.119461
0.152201
0.202716
0.290326
0.584347
1.49818
0.0101528
0.00801822
0.0134605
0.0266107
0.021889
0.0205935
0.0204067
0.0196178
0.0198879
0.0210174
0.0218471
0.0269745
0.0331458
0.0332396
0.0350783
0.0433436
0.0438558
0.0576341
0.0763288
0.0982975
0.123984
0.187519
0.262707
0.615646
1.58063
0.00950331
0.00843665
0.0212138
0.0321236
0.0249662
0.0228902
0.0208419
0.0222264
0.0200877
0.0190142
0.0200185
0.026837
0.0314659
0.0357767
0.0381383
0.0414342
0.0473087
0.054417
0.0682783
0.0918749
0.110517
0.18675
0.245899
0.527246
1.72104
0.00951767
0.0104607
0.0290587
0.0337345
0.0248265
0.0245757
0.0249405
0.027149
0.0253945
0.0235223
0.0199498
0.0225211
0.0283398
0.0368284
0.0360748
0.0461666
0.0534813
0.0602425
0.0626699
0.0716849
0.0956283
0.163161
0.214892
0.338546
1.29045
0.00927993
0.0118788
0.0358149
0.0326518
0.0235765
0.02864
0.0282662
0.0424835
0.035202
0.0276639
0.0315844
0.0343271
0.0339769
0.0425458
0.0470013
0.0519763
0.0510383
0.0660571
0.066931
0.074578
0.0771855
0.13426
0.198809
0.265706
0.772551
0.00918932
0.0114651
0.0417437
0.035456
0.0329341
0.03345
0.0353087
0.0368866
0.0963782
0.0667433
0.0456715
0.0427937
0.039801
0.0527213
0.0623819
0.0628961
0.0592324
0.0772581
0.0749744
0.0803403
0.090038
0.0980892
0.182339
0.234084
0.450363
0.00820997
0.0123301
0.0439878
0.0463237
0.0365726
0.040986
0.0432285
0.0739535
0.081778
0.0868782
0.0626526
0.0504773
0.045239
0.0469249
0.0594495
0.074701
0.0710036
0.0899914
0.096072
0.0923663
0.0978194
0.106543
0.154327
0.192703
0.316265
0.00805525
0.0128524
0.0655974
0.0563821
0.0599616
0.0901525
0.125876
0.151746
0.17004
0.205371
0.204169
0.158274
0.105138
0.0769668
0.0821584
0.0908273
0.0847865
0.0771876
0.0933947
0.0959191
0.0914715
0.101883
0.0951374
0.113761
0.189156
0.00970185
0.0267766
0.117948
0.0955705
0.128405
0.266558
0.561709
0.630091
0.608449
0.506296
0.399559
0.320971
0.250138
0.193242
0.147329
0.107375
0.113771
0.0843878
0.0709468
0.0599209
0.0522732
0.0597829
0.0565971
0.057597
0.0757291
0.0705154
0.0512542
0.0246856
0.0198982
0.0348021
0.0503476
0.0684012
0.0678102
0.067897
0.0596443
0.0517861
0.0506754
0.0539691
0.0532546
0.0532639
0.0551332
0.0562303
0.0591308
0.0566838
0.0597948
0.0595855
0.056485
0.0587194
0.0585077
0.0555941
0.105228
0.0397726
0.0463856
0.0451361
0.0444989
0.0581379
0.0659501
0.0772895
0.0842516
0.0755903
0.0671564
0.0657615
0.0714864
0.0720175
0.073017
0.0759845
0.0804339
0.0850544
0.0929009
0.097357
0.104952
0.112176
0.118906
0.121786
0.133522
0.0131547
0.0108809
0.0532226
0.139366
0.243297
0.2934
0.329692
0.316568
0.332234
0.312147
0.2635
0.228083
0.188583
0.236798
0.263022
0.268537
0.273686
0.270809
0.266181
0.30624
0.305767
0.336644
0.315711
0.299253
0.296604
0.00860103
0.00923528
0.0522971
0.0985477
0.156352
0.228166
0.240788
0.185659
0.152287
0.113956
0.117558
0.145278
0.192819
0.248453
0.248837
0.2675
0.295376
0.288434
0.33785
0.332787
0.335425
0.329184
0.332861
0.356112
0.385003
0.0082514
0.0121113
0.0472305
0.0696753
0.146175
0.176911
0.13309
0.121664
0.088602
0.0926931
0.0853916
0.0791318
0.0908448
0.100207
0.122493
0.147406
0.140021
0.147051
0.154673
0.127571
0.133433
0.148593
0.166319
0.264288
0.545098
0.00830255
0.0109484
0.0420588
0.0709067
0.120297
0.117931
0.111981
0.0904274
0.0722527
0.0784647
0.0674344
0.064428
0.0631877
0.0653861
0.0682537
0.0739074
0.076697
0.0774557
0.0768014
0.0804258
0.0847431
0.126713
0.154428
0.277737
0.831329
0.00844084
0.0120715
0.0405822
0.0617696
0.0725125
0.0882289
0.0593464
0.0614035
0.0592227
0.0612227
0.0636158
0.0609634
0.0596013
0.0525592
0.0689484
0.0733976
0.0768705
0.0692667
0.0742301
0.0819924
0.0875029
0.147958
0.191926
0.566554
1.48405
0.00854123
0.0107144
0.0342489
0.0497353
0.046557
0.0406125
0.0376481
0.0320602
0.0397371
0.0422604
0.069346
0.069234
0.0566029
0.0725769
0.0781924
0.0637076
0.0746596
0.0701052
0.0729746
0.0827341
0.0928276
0.19751
0.224858
0.80368
1.94712
0.00935801
0.00893303
0.0231651
0.0356362
0.0388413
0.0320683
0.0275287
0.0267466
0.033305
0.03551
0.0440253
0.045746
0.0500392
0.0540971
0.0590525
0.0692327
0.0689932
0.069409
0.0728682
0.0834633
0.0843349
0.192855
0.213011
1.3151
2.67739
0.0093552
0.0088111
0.0200033
0.0314291
0.0272205
0.0284885
0.0237064
0.0250115
0.0248432
0.0317713
0.0382176
0.0451223
0.0464659
0.0481433
0.0467638
0.0519421
0.0534404
0.0526044
0.0525196
0.0668085
0.0714404
0.139648
0.184834
1.45946
2.93183
0.00940618
0.008641
0.0172507
0.0254776
0.0280175
0.0228044
0.0217196
0.0204095
0.0210842
0.0252063
0.0302833
0.0360345
0.0406707
0.0406384
0.0401813
0.04653
0.0430365
0.0428559
0.0527784
0.0540251
0.0755095
0.0979133
0.164158
1.29057
3.26495
0.00950119
0.00793585
0.0148281
0.0205869
0.0215811
0.0230956
0.0209414
0.0201568
0.0218248
0.0234119
0.0260782
0.0290136
0.0336816
0.036751
0.0396756
0.0360426
0.0377319
0.0413186
0.0473436
0.0501274
0.0762199
0.0961311
0.204716
0.727921
3.44139
0.00946891
0.00804068
0.0133136
0.0207486
0.0237891
0.0214731
0.017261
0.0148727
0.0163117
0.0186144
0.0224366
0.0268676
0.0300771
0.0319228
0.036986
0.0335664
0.034445
0.0390081
0.0453143
0.051541
0.0718943
0.113054
0.206357
0.851795
3.1729
0.00949523
0.00798628
0.0109262
0.0204922
0.0340663
0.0245868
0.0194353
0.0160716
0.0165143
0.0189652
0.0208051
0.0226109
0.0265911
0.0300785
0.0322181
0.0338544
0.0391941
0.0379925
0.0436979
0.0499367
0.0689843
0.101794
0.266954
0.561251
3.10394
0.00954466
0.00778947
0.0116139
0.0204569
0.0226675
0.0173624
0.0165531
0.0154381
0.0163068
0.0187674
0.0207097
0.0239193
0.0293254
0.0303719
0.0305377
0.0343636
0.0376363
0.0389451
0.0408337
0.0491585
0.0621013
0.105004
0.361995
0.597615
3.47
0.00956558
0.00782433
0.0109649
0.0304752
0.0269219
0.0215465
0.0175046
0.0178413
0.0187687
0.0208284
0.0256075
0.026651
0.0301667
0.031401
0.0332976
0.0353241
0.036071
0.0373353
0.0409978
0.0439171
0.0595595
0.0811908
0.308066
0.76307
3.6664
0.00948351
0.00845265
0.0116797
0.0301869
0.0229449
0.0229187
0.0202983
0.0203386
0.0211006
0.0200367
0.0260307
0.0330041
0.0337177
0.0329015
0.031946
0.0334805
0.03551
0.0343698
0.0361124
0.0438171
0.0532084
0.0881233
0.236565
0.756411
3.97457
0.00937725
0.0096518
0.0204627
0.0300918
0.0244699
0.021796
0.0231746
0.0268866
0.0245509
0.0218981
0.0230563
0.0268204
0.0305559
0.0362289
0.0373689
0.0353592
0.0306557
0.0377145
0.0364663
0.0408614
0.0500402
0.0856319
0.201767
1.19593
4.07334
0.009298
0.0108581
0.0287617
0.0295561
0.0280746
0.0237764
0.0271097
0.0268042
0.024112
0.0202152
0.019715
0.0220455
0.0267519
0.0289674
0.0319345
0.0317217
0.0358545
0.0365494
0.0408587
0.0413918
0.0497104
0.0667038
0.173595
0.95357
3.86534
0.009361
0.0111553
0.0337702
0.028152
0.0268273
0.0306986
0.0371289
0.0405378
0.0331135
0.0388241
0.0380254
0.032117
0.025943
0.0333336
0.0362997
0.0331226
0.0339315
0.034948
0.0393102
0.0439545
0.044643
0.0590596
0.116118
0.600469
3.36044
0.00942009
0.0109938
0.0352154
0.0305538
0.0284632
0.030141
0.0359714
0.0674985
0.0665914
0.0436411
0.041154
0.0344811
0.0297402
0.0289969
0.0306127
0.0362303
0.0397302
0.040376
0.0395408
0.0435421
0.045833
0.0586394
0.0896009
0.271479
1.55252
0.00921419
0.0122432
0.0385444
0.0319806
0.0306108
0.0368641
0.0466044
0.0764907
0.136652
0.106371
0.0799986
0.061486
0.0457095
0.0349538
0.031013
0.031235
0.0426024
0.0403592
0.0480822
0.0499015
0.0464157
0.0534334
0.0817468
0.139299
0.732082
0.00886607
0.014983
0.0427849
0.0327928
0.047414
0.0499934
0.0671581
0.132845
0.146036
0.157679
0.136931
0.0956365
0.0642043
0.0535998
0.0453568
0.0403749
0.0399799
0.0397691
0.0498577
0.0502963
0.0536781
0.0539702
0.0841691
0.122818
0.311267
0.0083378
0.0198493
0.0504397
0.0462823
0.0693059
0.145846
0.174208
0.245146
0.35375
0.511346
0.529463
0.421647
0.251027
0.157778
0.0937541
0.0611733
0.0520594
0.0408422
0.0427599
0.0494007
0.0458869
0.0547052
0.0738114
0.095651
0.143669
0.0090334
0.0445165
0.104911
0.107241
0.124881
0.568737
0.868735
0.957659
0.969027
0.771099
0.596477
0.421272
0.246231
0.16205
0.132229
0.116187
0.0913933
0.0643174
0.0532459
0.0505211
0.0479746
0.0507566
0.0449967
0.0460478
0.065797
0.0793607
0.0547817
0.031324
0.035999
0.0413523
0.0868615
0.103459
0.0969151
0.0842242
0.0733946
0.0667662
0.0640648
0.0637575
0.0715844
0.0703077
0.0617049
0.0574908
0.0539086
0.0544166
0.0541181
0.0520282
0.0475307
0.0413867
0.0431299
0.0403691
0.10282
0.0353289
0.0518002
0.0646929
0.0683974
0.06977
0.0721163
0.0852798
0.0710162
0.059983
0.0553273
0.0657403
0.0706633
0.0777229
0.0773017
0.0770963
0.0802774
0.0857085
0.0921806
0.0989493
0.104644
0.112845
0.119095
0.121632
0.134199
0.0113383
0.00847589
0.0217921
0.0978125
0.164245
0.265767
0.229915
0.221044
0.241258
0.248873
0.202481
0.216301
0.220354
0.240754
0.269241
0.262903
0.387298
0.369801
0.341918
0.323752
0.320008
0.37268
0.385829
0.398943
0.371221
0.0093785
0.00764084
0.0230779
0.0659406
0.111543
0.137248
0.149347
0.0933414
0.109902
0.0839869
0.0871709
0.125146
0.151085
0.189437
0.221525
0.296939
0.424478
0.450512
0.392224
0.358659
0.372894
0.38596
0.375703
0.35286
0.402661
0.00933014
0.00768172
0.0291933
0.0563303
0.0942216
0.0888153
0.0820576
0.0765077
0.0734546
0.0793772
0.0621623
0.0626534
0.0765932
0.101022
0.132819
0.231533
0.25941
0.252177
0.21506
0.203553
0.200157
0.194148
0.198842
0.230908
0.462657
0.00936649
0.00866477
0.0260222
0.0430852
0.07282
0.0883958
0.07932
0.082852
0.0797987
0.06018
0.0651416
0.0612503
0.0622564
0.0675479
0.0814731
0.0980235
0.102956
0.119038
0.107131
0.109986
0.110309
0.118342
0.136914
0.181
0.728446
0.00939666
0.00885119
0.0235449
0.0380219
0.0398943
0.0548888
0.0539263
0.036081
0.0606252
0.0686848
0.0556714
0.0607109
0.0637453
0.0737265
0.0790219
0.0820178
0.0889494
0.0738648
0.0877705
0.077803
0.0837904
0.0912528
0.114877
0.275874
1.43644
0.00938168
0.00865849
0.0209312
0.0330468
0.0360705
0.0375312
0.0341605
0.0292538
0.0517326
0.0542185
0.0472893
0.0623798
0.0672344
0.0714897
0.0787201
0.0612856
0.0725478
0.073738
0.0735204
0.0584883
0.0615434
0.0743075
0.131106
0.374586
2.70346
0.00928343
0.00902119
0.0168502
0.0259335
0.026058
0.0244965
0.0259488
0.0251105
0.0251857
0.0243262
0.036869
0.0332573
0.0408421
0.0532056
0.0482032
0.0574192
0.047621
0.0510595
0.0447559
0.0431677
0.0549277
0.0666902
0.175465
0.536199
4.97961
0.00925617
0.0099538
0.0162046
0.0214609
0.0252483
0.0243737
0.0227864
0.0235259
0.0255967
0.0266184
0.0281188
0.0339784
0.0278389
0.0337956
0.0329904
0.0296923
0.0373323
0.0389561
0.0331048
0.0442793
0.0477212
0.0730196
0.296965
0.869419
7.31371
0.00938953
0.00897085
0.0126649
0.0176332
0.0193013
0.0231016
0.0199282
0.0180793
0.018481
0.0218368
0.0238336
0.0273666
0.0258102
0.030707
0.033038
0.0336992
0.0312889
0.0271821
0.0367985
0.0348871
0.0400278
0.0874029
0.523559
1.45025
9.27948
0.0094957
0.00734028
0.0131244
0.0165693
0.0242415
0.0213583
0.0186519
0.0168092
0.0161676
0.0176846
0.0198882
0.0220579
0.0263513
0.0285931
0.0264016
0.0260521
0.0311697
0.0337804
0.0319577
0.0354752
0.0475122
0.0987083
0.827647
1.80696
10.3097
0.00947256
0.00752187
0.0114186
0.0200029
0.028844
0.0218583
0.0178798
0.0157896
0.0152616
0.0187692
0.0217494
0.0247411
0.0272487
0.0291531
0.0268131
0.0289901
0.0273172
0.036652
0.0350884
0.0462084
0.0479307
0.114659
0.737408
2.57366
9.863
0.00937969
0.00833165
0.0124936
0.0363903
0.0334707
0.0206367
0.0193581
0.0158339
0.0168661
0.0195269
0.0197851
0.0213974
0.0255062
0.0267802
0.0291508
0.0314292
0.0316262
0.0355544
0.034952
0.0507163
0.0604267
0.140675
1.27493
2.23619
12.041
0.00933292
0.00968707
0.0177285
0.0329319
0.0222511
0.020258
0.0168987
0.0185052
0.0200324
0.0225892
0.0220991
0.0272623
0.0284864
0.0267116
0.0288122
0.0319532
0.0346387
0.0354179
0.0355433
0.0429961
0.0564976
0.185932
1.32255
4.58278
12.7138
0.00927284
0.0109928
0.0238087
0.0288295
0.0247068
0.0221846
0.0240797
0.0247644
0.0263802
0.0293026
0.0320055
0.02802
0.0263076
0.0328234
0.0315045
0.0327055
0.0372017
0.0391277
0.0361225
0.0391049
0.0489455
0.207039
1.03365
4.43882
13.2223
0.00928942
0.0120195
0.0290966
0.028021
0.0270435
0.0282652
0.0315673
0.0269789
0.0270202
0.0322442
0.0401485
0.049118
0.0429242
0.0360703
0.0334587
0.0302244
0.0345201
0.038275
0.0397376
0.0415171
0.0471647
0.151203
1.09925
2.69915
13.0109
0.00929917
0.0144527
0.0292084
0.026421
0.0269897
0.0319314
0.0307547
0.0405654
0.0341584
0.0279859
0.0289539
0.034844
0.0371655
0.0348825
0.0329304
0.0321529
0.0365506
0.0378765
0.0373344
0.0368512
0.0425536
0.0848239
0.783118
1.45218
11.3839
0.0093596
0.0167102
0.0290266
0.0281236
0.0285496
0.0383162
0.0443176
0.0526933
0.0433586
0.0279488
0.0230063
0.0277123
0.0346133
0.03167
0.032248
0.0335635
0.0385449
0.0414894
0.0377812
0.0326484
0.0336477
0.0492158
0.429793
0.523017
8.3584
0.00929372
0.0194252
0.0325355
0.0295533
0.0367363
0.0435637
0.0466565
0.0752428
0.0565577
0.04601
0.0381009
0.0263593
0.0265411
0.0279394
0.0301705
0.0321623
0.0299098
0.0375035
0.041174
0.0409452
0.0351983
0.0363973
0.188164
0.340966
4.63863
0.00928114
0.0194393
0.0333435
0.034445
0.0379226
0.0501936
0.0576494
0.104924
0.104796
0.0840778
0.0750922
0.056767
0.0397551
0.0285647
0.0254444
0.0315326
0.029236
0.0320885
0.0392617
0.0399058
0.0387197
0.0399957
0.0953676
0.169266
2.34122
0.00922473
0.0215619
0.034597
0.033816
0.0525721
0.0611065
0.0705472
0.162969
0.164135
0.171272
0.161705
0.126241
0.0894167
0.0571923
0.0334462
0.0355435
0.0338957
0.0353595
0.0364784
0.0367765
0.0374343
0.0391929
0.0624229
0.105699
1.10415
0.00901939
0.0212427
0.0400127
0.0412917
0.0622469
0.0701448
0.0963903
0.225113
0.241014
0.223371
0.32438
0.281754
0.204595
0.124481
0.0726985
0.0456079
0.0424843
0.0413946
0.0392064
0.0376407
0.0401433
0.0401192
0.0500513
0.0756284
0.390114
0.00857575
0.0278878
0.0488439
0.042579