/*--------------------------------*- C++ -*----------------------------------*\
  =========                 |
  \\      /  F ield         | OpenFOAM: The Open Source CFD Toolbox
   \\    /   O peration     | Website:  https://openfoam.org
    \\  /    A nd           | Version:  11
     \\/     M anipulation  |
\*---------------------------------------------------------------------------*/
FoamFile
{
    format      ascii;
    class       volScalarField;
    location    "40";
    object      omega;
}
// * * * * * * * * * * * * * * * * * * * * * * * * * * * * * * * * * * * * * //

dimensions      [0 0 -1 0 0 0 0];

internalField   nonuniform List<scalar> 
17196
(
0.01906
0.0150491
0.018514
0.0199367
0.0205967
0.0219795
0.0252631
0.0287725
0.0302078
0.0340776
0.03733
0.0396112
0.0414091
0.0438334
0.0463124
0.0479775
0.0493735
0.0494801
0.0498011
0.0500693
0.0504977
0.0512881
0.0515159
0.0515603
0.0497514
0.00964621
0.00726477
0.00867258
0.0106577
0.0112109
0.0112694
0.0132206
0.016584
0.0167082
0.0183703
0.019736
0.0207186
0.0213474
0.0214459
0.0226648
0.0231484
0.0235519
0.0237532
0.0241061
0.0244218
0.0233657
0.024589
0.0251619
0.0256702
0.0261777
0.0108725
0.00726425
0.00741492
0.00764593
0.0100559
0.0104306
0.0117764
0.0139437
0.0154467
0.0173159
0.0183873
0.0194682
0.019937
0.0203356
0.0207484
0.0210669
0.0213242
0.0215372
0.0223703
0.022702
0.02321
0.0236047
0.0240977
0.0245902
0.025148
0.00972547
0.00846395
0.00752618
0.00747074
0.00936856
0.0105125
0.0124528
0.0142304
0.0156348
0.0168944
0.017698
0.0187389
0.019577
0.0201615
0.020752
0.0209696
0.0213204
0.0216726
0.0217924
0.0220456
0.0227389
0.0225951
0.0237552
0.0241189
0.0246119
0.009662
0.00823164
0.00729004
0.00742125
0.00789268
0.00872887
0.013024
0.0147564
0.0158614
0.0168498
0.0173299
0.0179258
0.0186382
0.0195579
0.0202567
0.0202102
0.0206942
0.0207968
0.0211393
0.0216229
0.0220924
0.0225036
0.0223311
0.0224532
0.0238857
0.00991076
0.00864067
0.00672295
0.00772508
0.00876067
0.00854853
0.0123936
0.0135825
0.0151376
0.016248
0.0172475
0.0179783
0.0184014
0.0190608
0.0202114
0.0204489
0.0207803
0.0209916
0.0209353
0.0214907
0.0219001
0.0217156
0.0223511
0.023549
0.0256982
0.0101297
0.00741286
0.00673607
0.00718675
0.00807325
0.00790802
0.0105486
0.0117391
0.0135984
0.0153046
0.0166429
0.0177615
0.0184955
0.0191295
0.0199244
0.0206236
0.0210373
0.0217594
0.021763
0.0216436
0.0223985
0.0226917
0.0227916
0.0244478
0.0270219
0.0102805
0.00734363
0.0072016
0.00789516
0.00796387
0.00774474
0.00856784
0.0103425
0.0116715
0.0136081
0.0149758
0.0165203
0.0179072
0.0186377
0.0194541
0.0203877
0.021015
0.0215162
0.0220618
0.0222991
0.0228122
0.0230111
0.0235712
0.0264075
0.0288999
0.0103722
0.00730465
0.00749052
0.00726954
0.00740662
0.00708809
0.00739758
0.00809142
0.00938536
0.0110841
0.0130722
0.0143437
0.0156433
0.0172922
0.0180629
0.0192537
0.0200765
0.0206832
0.0210978
0.0215019
0.0219415
0.0226633
0.0233741
0.0262466
0.0285331
0.0104446
0.0075359
0.00752785
0.00693638
0.00674544
0.00653867
0.00687
0.00705769
0.00802451
0.00886642
0.0104893
0.0123445
0.0135727
0.0149604
0.016162
0.0170703
0.0176616
0.0182322
0.0188207
0.0196026
0.0202642
0.0216583
0.0227614
0.0254302
0.0280174
0.0104189
0.00754988
0.00711364
0.00654845
0.00648035
0.00576011
0.0057105
0.00633293
0.00721746
0.00806292
0.00935099
0.0109224
0.012312
0.0134935
0.0144789
0.0153962
0.0161842
0.016932
0.0174794
0.0181109
0.018843
0.0204441
0.0215055
0.0249683
0.0272646
0.0104029
0.00706572
0.00674512
0.0061074
0.00599625
0.00561783
0.00557686
0.00586117
0.00631298
0.00734024
0.00813624
0.00948525
0.0109094
0.0124747
0.0135369
0.0144206
0.0150394
0.0157645
0.0163132
0.0168229
0.0173395
0.0191502
0.0201115
0.0242307
0.026571
0.0102692
0.00574873
0.00624289
0.00577602
0.00567865
0.00541054
0.00564769
0.0059076
0.00613893
0.00672765
0.00752614
0.00834576
0.00933393
0.0107051
0.0118992
0.0129508
0.0140247
0.0151789
0.0161295
0.0167529
0.0170583
0.0175705
0.018149
0.0216782
0.025951
0.00965234
0.00440229
0.00579101
0.00544954
0.00537187
0.00498924
0.00498577
0.00552267
0.00601229
0.00672479
0.00745339
0.00846986
0.00922312
0.0104983
0.0114393
0.012794
0.013718
0.0149735
0.0161451
0.0168068
0.0173782
0.0179037
0.0181719
0.0189621
0.0243208
0.00919857
0.00429598
0.00559085
0.00526334
0.005171
0.00493693
0.00485427
0.00529407
0.00560417
0.00679124
0.00731061
0.00847178
0.00927162
0.010438
0.0113766
0.012555
0.0135421
0.0147715
0.0161549
0.0168482
0.017673
0.0181657
0.0185967
0.019117
0.0226153
0.00866485
0.00441483
0.00516832
0.00518299
0.0051391
0.0049397
0.00494089
0.00496737
0.00571346
0.00670087
0.00741055
0.00858127
0.00927446
0.0103691
0.0112577
0.012243
0.0133379
0.0143438
0.0155523
0.0164395
0.017394
0.0179925
0.0183976
0.0190641
0.0211788
0.00871916
0.00514833
0.00489862
0.00531032
0.00496231
0.00489183
0.0048844
0.005068
0.00596556
0.00671289
0.00758255
0.00861934
0.00943315
0.0105071
0.0111247
0.012016
0.0130117
0.0140253
0.0149624
0.0156282
0.0163036
0.0170665
0.0179543
0.0182542
0.0204968
0.00952271
0.00518099
0.00491744
0.00511559
0.00515041
0.00499188
0.00492041
0.00504223
0.00589269
0.00657011
0.00751596
0.0085256
0.00945006
0.0105333
0.011135
0.012092
0.0128855
0.0134737
0.0138868
0.0149385
0.0152631
0.0159237
0.0164878
0.0162613
0.0176734
0.00926868
0.00357897
0.00487633
0.00549907
0.00522563
0.00502449
0.00484415
0.00490294
0.00541558
0.0060614
0.00715272
0.00821803
0.00922175
0.0102622
0.0108481
0.0118621
0.0125996
0.0132241
0.0134935
0.0146063
0.0150322
0.0149904
0.0163018
0.0166754
0.0169736
0.00967149
0.0042192
0.00471179
0.00557126
0.00531791
0.00509058
0.00490963
0.00503565
0.00546435
0.0061702
0.00677965
0.00797096
0.00882705
0.00998104
0.0107298
0.0115616
0.0124033
0.0128929
0.0133109
0.0137041
0.0145207
0.0147827
0.0152953
0.0159872
0.0164431
0.00994077
0.00435862
0.0047745
0.00573118
0.00542158
0.00535256
0.00500393
0.00533404
0.00532031
0.00545242
0.00590944
0.00724868
0.00815309
0.00955593
0.0102961
0.011361
0.0119896
0.0127056
0.0137714
0.0135104
0.0144539
0.0149834
0.0153825
0.0148432
0.015979
0.0104683
0.00448743
0.00466689
0.00571407
0.00556033
0.0055917
0.00536474
0.00527333
0.00560449
0.00603396
0.00682548
0.00779433
0.00860364
0.00957504
0.0103554
0.0109759
0.0115974
0.012402
0.0136211
0.0140764
0.0145559
0.0149972
0.0148362
0.0145773
0.0156365
0.010004
0.00469696
0.00450057
0.00576953
0.00576212
0.0058689
0.00600905
0.00643975
0.00634539
0.00681951
0.00735212
0.00795224
0.00867667
0.00924712
0.00998807
0.0104523
0.0110586
0.0115954
0.0118117
0.0123048
0.0124574
0.0133861
0.013735
0.0132757
0.0144286
0.0100652
0.00542191
0.00452837
0.00544577
0.00673461
0.0080469
0.00813732
0.00845322
0.00887323
0.00842795
0.00881413
0.00947062
0.00987718
0.0105205
0.0109908
0.0115373
0.0120644
0.0125536
0.0128738
0.0132653
0.0137125
0.0139916
0.0142725
0.0144664
0.014819
0.0204351
0.0148838
0.0109107
0.0142232
0.0162983
0.0181588
0.0185107
0.020365
0.0228697
0.0250507
0.0266112
0.0286511
0.0300666
0.0318955
0.0330176
0.0344486
0.0357093
0.0368888
0.0380216
0.0388777
0.0398316
0.0409083
0.0423256
0.0429144
0.0434196
0.0193444
0.0193155
0.0242785
0.0258159
0.0273007
0.0290837
0.0308054
0.0344841
0.0377378
0.0400605
0.0412001
0.0426145
0.0448237
0.0487114
0.0514703
0.0546351
0.056739
0.0581782
0.0599328
0.0620713
0.0635186
0.0659062
0.0665957
0.0674723
0.0659698
0.304708
0.110643
0.0769724
0.0649736
0.0574031
0.0488109
0.0541684
0.0442895
0.0569691
0.0755053
0.0819134
0.0940974
0.0955364
0.0916784
0.0854195
0.0790795
0.07278
0.0672289
0.0618717
0.0569591
0.0551257
0.0535814
0.0534139
0.0538716
0.0552867
0.321578
0.124706
0.0654237
0.0466529
0.0432955
0.047734
0.048221
0.0446025
0.0521896
0.0528165
0.0642414
0.0673841
0.0650924
0.0617052
0.0581862
0.0555487
0.052123
0.0485063
0.0452339
0.0414006
0.0396854
0.0389645
0.0386741
0.0387695
0.0381873
0.32696
0.127229
0.0574463
0.0349574
0.0331402
0.037963
0.0454228
0.0415601
0.052324
0.0486824
0.0609808
0.0651778
0.0624087
0.0590774
0.0549517
0.0508973
0.0470433
0.0439882
0.0412592
0.0400005
0.0383664
0.0378812
0.0362917
0.0356305
0.034942
0.322229
0.128728
0.045817
0.0248775
0.0216719
0.0274571
0.0348208
0.0333458
0.046695
0.0443574
0.0535578
0.0643574
0.0652214
0.0620823
0.0571106
0.0516999
0.046588
0.0423547
0.039057
0.0374137
0.0357329
0.0347026
0.0335617
0.0337107
0.0335977
0.316346
0.127105
0.0515251
0.0261997
0.018969
0.0221974
0.0316014
0.0353541
0.0441727
0.0460742
0.0598681
0.0550296
0.0595643
0.0609099
0.0563018
0.051611
0.0469104
0.0422579
0.0390166
0.0379941
0.0374882
0.0354442
0.0350922
0.0363372
0.0359654
0.311867
0.128062
0.043355
0.0267911
0.0315464
0.0326493
0.0373554
0.0391395
0.0429646
0.0535799
0.0533772
0.0564932
0.0523407
0.0538851
0.0517224
0.0484125
0.0443333
0.0403666
0.0371947
0.0352071
0.0334618
0.0328863
0.0318325
0.0351338
0.0353675
0.310941
0.136837
0.0388545
0.0284274
0.0392433
0.0446445
0.0520316
0.0612537
0.0648564
0.0595931
0.0569016
0.0551405
0.0509397
0.0494114
0.0457003
0.0417518
0.038104
0.0348132
0.0328859
0.0310824
0.0308697
0.0304547
0.0307918
0.0352838
0.0371198
0.309201
0.148518
0.0385379
0.0316242
0.0436348
0.0480068
0.0628466
0.0708585
0.0727476
0.0709898
0.0660293
0.0627064
0.0579636
0.0523532
0.0475437
0.0420446
0.0381065
0.0346899
0.0317894
0.0300604
0.0302889
0.0298086
0.0303538
0.0352054
0.0375528
0.311802
0.167177
0.0433778
0.0381675
0.0501399
0.0607165
0.0744122
0.0781816
0.0801739
0.0800022
0.0743775
0.0692926
0.0625171
0.0560036
0.0509749
0.0441199
0.0407076
0.0369725
0.0334827
0.0309876
0.032589
0.0310309
0.0320052
0.0361709
0.0394878
0.318104
0.173786
0.0456405
0.0403391
0.0565939
0.0684675
0.0814441
0.0801987
0.0824687
0.0803904
0.0792211
0.0745863
0.0669507
0.0599093
0.0518997
0.0447865
0.0428155
0.0400229
0.0358245
0.0401194
0.0364797
0.035679
0.0368589
0.039295
0.0452399
0.327178
0.180021
0.0497077
0.0425664
0.0580612
0.0770249
0.0820361
0.0856889
0.0834577
0.0809363
0.0799121
0.0750885
0.0675817
0.0600855
0.0515952
0.0435767
0.0465422
0.0445595
0.0426919
0.0476725
0.0427416
0.0491682
0.0471109
0.0464655
0.0560843
0.349024
0.153464
0.0487588
0.0450677
0.062472
0.0826095
0.0894323
0.0884417
0.0839248
0.0799204
0.0755051
0.0689887
0.0621901
0.0544098
0.0479687
0.0409906
0.0420123
0.0401892
0.0402357
0.0418143
0.0424831
0.0511322
0.0572703
0.0559098
0.0654526
0.321988
0.149732
0.0595284
0.0569
0.0748022
0.0971913
0.096455
0.0898625
0.0837175
0.0786349
0.0724866
0.0643122
0.0585163
0.0521849
0.0459359
0.0414199
0.0372965
0.0331292
0.0363741
0.0385811
0.040587
0.0393402
0.0410049
0.0491012
0.0620065
0.28615
0.148293
0.0849158
0.0833014
0.091165
0.101243
0.09887
0.0891005
0.0836881
0.0780652
0.0704132
0.0627982
0.0540257
0.0488415
0.0417512
0.0376421
0.0343479
0.0317066
0.0289329
0.0316616
0.033248
0.034536
0.0334501
0.0382164
0.0542583
0.27751
0.155996
0.107884
0.104383
0.114557
0.111393
0.0987922
0.0876239
0.0829179
0.0773838
0.0699445
0.0618192
0.0525854
0.0483694
0.0403063
0.0356799
0.0307097
0.0278647
0.0258845
0.0275167
0.0282571
0.0289649
0.0286465
0.0299002
0.0442092
0.336442
0.166519
0.134264
0.11054
0.127134
0.116097
0.098664
0.0865966
0.0790996
0.0750076
0.0716662
0.0631006
0.0544873
0.0473494
0.0413148
0.0362647
0.0290443
0.0288896
0.0284125
0.0271019
0.0253324
0.0259481
0.0255568
0.0261758
0.036898
0.393454
0.178814
0.0836096
0.101408
0.116316
0.111193
0.0963035
0.0852736
0.0786419
0.072572
0.067265
0.0616308
0.0553433
0.0460446
0.0379333
0.034533
0.0292837
0.0269397
0.0265325
0.025827
0.0252916
0.0246661
0.0251522
0.0247232
0.0299257
0.354679
0.141015
0.0539166
0.0774134
0.112305
0.109432
0.0959688
0.0847098
0.0780801
0.0713374
0.0635461
0.0549626
0.0491592
0.0428313
0.0373133
0.0321125
0.0273082
0.0267508
0.026869
0.0272855
0.0277078
0.0279689
0.0248001
0.0256501
0.0278291
0.382339
0.140717
0.0415178
0.0711015
0.111468
0.110457
0.0994015
0.0882307
0.0851558
0.0786514
0.0688766
0.0571205
0.0469503
0.0397344
0.0338296
0.0296012
0.0259138
0.0258761
0.0263171
0.0268277
0.0264477
0.0254336
0.0263524
0.0255783
0.0268637
0.393558
0.141395
0.037768
0.0622249
0.111765
0.112624
0.10236
0.102209
0.0955595
0.0899074
0.081099
0.0680803
0.0532883
0.0420214
0.0341524
0.0291809
0.0259522
0.0260117
0.0247438
0.0261616
0.0268296
0.0270011
0.0253309
0.0258174
0.028354
0.387867
0.154697
0.0456118
0.0659888
0.135089
0.123511
0.111296
0.102765
0.104087
0.0990579
0.0944577
0.082552
0.0656355
0.0506113
0.0394158
0.0315506
0.0260089
0.0253362
0.0239513
0.0262196
0.0270788
0.0275607
0.0282168
0.0264245
0.0298564
0.36413
0.181109
0.0541423
0.0510757
0.117406
0.145374
0.131071
0.119411
0.109347
0.096495
0.0880337
0.0774624
0.0647699
0.0521046
0.042004
0.0362916
0.029643
0.0282891
0.0262023
0.0278801
0.0269372
0.0261785
0.0271309
0.0277462
0.0306879
0.322722
0.137969
0.0709138
0.0358138
0.095206
0.133598
0.171628
0.170848
0.156915
0.138938
0.121593
0.10414
0.0883649
0.0739343
0.0607078
0.0489211
0.0410069
0.0365972
0.0335697
0.0317734
0.0321442
0.0313139
0.0319573
0.0321329
0.0336166
0.0218331
0.0159596
0.0137613
0.0154919
0.0204419
0.0241263
0.0265521
0.0299593
0.0329591
0.0338939
0.0370688
0.0394965
0.0410745
0.0423702
0.044827
0.0462399
0.0475726
0.0490754
0.0500943
0.0504595
0.0516492
0.0524101
0.0533504
0.0538448
0.0556761
0.0205312
0.0169663
0.0245487
0.0297417
0.0301547
0.0315388
0.0337198
0.0360658
0.0392382
0.040536
0.0421973
0.0437948
0.0469952
0.0495455
0.0519461
0.0551731
0.0571305
0.0595783
0.0627283
0.0638282
0.0640364
0.0651239
0.0674645
0.0679735
0.0696952
0.311663
0.141855
0.10442
0.0818334
0.065662
0.0690233
0.0739436
0.082452
0.0750948
0.0940581
0.104552
0.105636
0.104099
0.102131
0.094561
0.0864403
0.0797599
0.0740613
0.0683361
0.0640805
0.0603137
0.0562338
0.0567574
0.054984
0.0550211
0.336483
0.159369
0.0854529
0.0568361
0.0603428
0.0722994
0.0644931
0.0569458
0.066144
0.0714568
0.0645176
0.0618059
0.05817
0.0535222
0.0523722
0.0532354
0.0524868
0.0499241
0.0463699
0.043217
0.0403336
0.0381738
0.037113
0.0371616
0.0370596
0.339183
0.156101
0.0722393
0.0455103
0.0503715
0.0576664
0.0620246
0.0565094
0.0696412
0.0742867
0.0663462
0.059094
0.0533291
0.049676
0.0467564
0.0446498
0.0429902
0.0408166
0.0385175
0.0363255
0.0343923
0.0336146
0.0324404
0.0327006
0.0327508
0.342183
0.164871
0.0732889
0.0496739
0.0436884
0.0399651
0.0538446
0.0683526
0.0648935
0.0773632
0.0747417
0.0651739
0.0572034
0.0514803
0.0467869
0.04289
0.039986
0.0371727
0.0345764
0.0324045
0.0306929
0.0295723
0.0291501
0.0305099
0.030915
0.344438
0.166442
0.0730402
0.0439651
0.0427756
0.0432116
0.052052
0.0579395
0.0733566
0.0680631
0.0757754
0.0737732
0.0647343
0.0569301
0.0507104
0.045083
0.0417565
0.0380903
0.0345301
0.0318612
0.0301444
0.0287796
0.029289
0.030639
0.0330309
0.341745
0.168886
0.078614
0.047884
0.0508657
0.049962
0.0577184
0.0715706
0.0729476
0.0728609
0.0744262
0.0728629
0.0668742
0.0605509
0.0535379
0.0479087
0.0428186
0.0385468
0.0350154
0.0333359
0.0316113
0.0321997
0.0318568
0.0347184
0.0383009
0.33841
0.173081
0.0836996
0.048361
0.047824
0.0583146
0.0636222
0.0742623
0.0791382
0.0829472
0.0812818
0.0747928
0.0671055
0.0603051
0.0547587
0.0497482
0.0453448
0.0404994
0.0408949
0.0411656
0.0384269
0.0378435
0.0368194
0.0398858
0.0424253
0.338381
0.17107
0.0875925
0.0536417
0.0531356
0.0588165
0.0703348
0.0770754
0.0767694
0.0814248
0.0841965
0.0784596
0.0707616
0.0616743
0.0545075
0.0486799
0.0443811
0.03993
0.042473
0.0400432
0.037529
0.0406797
0.0406823
0.0420697
0.0439062
0.339053
0.168243
0.0938203
0.0599728
0.0563199
0.0674451
0.0731569
0.0823332
0.0824281
0.0845275
0.0817328
0.0736907
0.0641604
0.0563572
0.0473092
0.0485378
0.0479494
0.0448576
0.0475333
0.0477008
0.0473676
0.0463833
0.0429069
0.0422095
0.0450892
0.337708
0.167558
0.098645
0.066968
0.0613113
0.0733581
0.0754893
0.0813269
0.081819
0.0797358
0.0730197
0.063616
0.0550878
0.0463281
0.0444082
0.0454637
0.0462988
0.0469815
0.0421804
0.0436189
0.040456
0.0382076
0.0394302
0.0409312
0.0452712
0.338232
0.167811
0.100776
0.0716957
0.0709655
0.0739775
0.0837236
0.0844202
0.0789388
0.0724086
0.0668868
0.0581564
0.0507814
0.0431377
0.0398188
0.0374608
0.0398287
0.0402512
0.0381052
0.0385937
0.0378364
0.0380918
0.0381739
0.0420056
0.0454939
0.340415
0.176548
0.103831
0.0742099
0.0692866
0.0897191
0.0899367
0.0814994
0.0744741
0.0671512
0.0605999
0.0538949
0.0480237
0.0431655
0.0365067
0.034667
0.0338992
0.0325311
0.0312114
0.0333012
0.0345664
0.0349197
0.0351184
0.0380869
0.0464279
0.342084
0.18165
0.10941
0.075292
0.0882976
0.10541
0.0899833
0.0797071
0.0729407
0.0653403
0.0585272
0.0513044
0.0473422
0.0434672
0.0379796
0.0325082
0.0314164
0.030946
0.0300378
0.0299506
0.0300927
0.029403
0.0301395
0.0348161
0.0455017
0.339945
0.182764
0.112757
0.0954869
0.12462
0.110306
0.0886005
0.078709
0.0728654
0.0663815
0.0607955
0.0533057
0.0476741
0.0411624
0.0375716
0.0321236
0.0297679
0.0293585
0.0292329
0.029668
0.0282496
0.0277257
0.0277852
0.0321058
0.0423581
0.341484
0.178565
0.116049
0.1101
0.131333
0.103971
0.0858413
0.0784871
0.0737674
0.0668342
0.0604244
0.0537425
0.0466354
0.0426861
0.0360042
0.032238
0.0274281
0.0264041
0.0256634
0.0266481
0.0267364
0.0262501
0.0261193
0.0298486
0.0392132
0.350935
0.174896
0.108079
0.127761
0.134034
0.0988813
0.0836313
0.0746424
0.0715237
0.067704
0.0621845
0.0548177
0.0489081
0.0437987
0.0379488
0.0323338
0.0283427
0.0248775
0.0246208
0.0245766
0.0246003
0.0241812
0.0240492
0.0270252
0.0349927
0.347806
0.169148
0.0938738
0.135747
0.130183
0.0943167
0.0809881
0.0737227
0.0690954
0.0664043
0.0626707
0.0561556
0.0492771
0.0425842
0.0380717
0.0332257
0.0293621
0.024797
0.0222436
0.0212556
0.022804
0.0220552
0.0217317
0.0240916
0.0311054
0.341741
0.166293
0.0832858
0.144292
0.129377
0.0934868
0.081771
0.0745403
0.0711399
0.0663216
0.060803
0.05713
0.0528597
0.0439657
0.0379275
0.0330443
0.0292317
0.0257006
0.0227738
0.0222527
0.0214137
0.022154
0.021838
0.0218319
0.0269744
0.341367
0.16353
0.0819347
0.151069
0.131836
0.0985999
0.0895107
0.0823238
0.0961277
0.100798
0.0826626
0.0620966
0.0512493
0.0424521
0.0371775
0.031723
0.0288167
0.0255669
0.0227261
0.0217379
0.021881
0.0214426
0.0219275
0.0217839
0.0248146
0.343157
0.174627
0.0751521
0.151046
0.134934
0.103047
0.0950383
0.110577
0.103189
0.107668
0.097389
0.0771836
0.0582847
0.0439402
0.0365634
0.0329076
0.0284955
0.0254839
0.0224729
0.0225387
0.0219918
0.0219844
0.0214827
0.0220762
0.0238871
0.350836
0.171087
0.0768969
0.14722
0.148285
0.114254
0.105439
0.101575
0.114515
0.104853
0.108081
0.0957687
0.0761748
0.0525924
0.0411194
0.0342193
0.0286476
0.0248473
0.0226594
0.0216323
0.0225116
0.0214935
0.0223375
0.0235085
0.0250487
0.351139
0.174651
0.0870997
0.134867
0.204614
0.168043
0.143558
0.124174
0.113692
0.0985192
0.0922661
0.0814887
0.068801
0.0541261
0.0431213
0.0358215
0.0290262
0.0258442
0.0235997
0.0232706
0.0231126
0.0230027
0.0227984
0.024889
0.0276069
0.33712
0.131238
0.0883564
0.104455
0.180356
0.229293
0.230317
0.216793
0.193633
0.165371
0.141804
0.119063
0.10127
0.0798461
0.0608801
0.0463952
0.0369781
0.0314691
0.0302233
0.028789
0.0278891
0.0284723
0.0281583
0.0294471
0.0324983
0.021616
0.0208575
0.0203458
0.0256575
0.0323295
0.0398996
0.043101
0.044699
0.0456406
0.0452413
0.045781
0.0469142
0.0483612
0.0476505
0.047159
0.0473432
0.0466214
0.044504
0.0457608
0.0460806
0.044732
0.0458891
0.0462743
0.0449821
0.0483294
0.0198601
0.0182531
0.0254013
0.0314428
0.03109
0.0334299
0.0349177
0.0354912
0.0377889
0.042069
0.0452155
0.0486392
0.052338
0.0533362
0.0538577
0.0554352
0.0575977
0.0604972
0.063513
0.0648727
0.0674359
0.0689119
0.069426
0.0699305
0.0707826
0.309364
0.140941
0.101242
0.0858462
0.0706134
0.0707823
0.0757084
0.0776451
0.096754
0.115144
0.121387
0.108596
0.138236
0.144647
0.119733
0.0978524
0.085394
0.0776468
0.0715
0.066775
0.0622586
0.0603199
0.0566184
0.0571194
0.0575152
0.337555
0.152234
0.090527
0.0716627
0.0638457
0.0725251
0.0725478
0.0721419
0.0796008
0.0731187
0.0653433
0.0622064
0.0603683
0.0596122
0.0638213
0.0656973
0.0627216
0.0588463
0.0537574
0.0494124
0.0451234
0.0440133
0.0423223
0.0413459
0.0414761
0.343088
0.159375
0.0862806
0.0661489
0.0557043
0.0683051
0.0702457
0.074962
0.0805523
0.0707271
0.062945
0.054508
0.0509871
0.0488881
0.0478093
0.0466698
0.0449581
0.0431613
0.0411139
0.0396088
0.0371115
0.0362966
0.0357189
0.0358014
0.0355396
0.342416
0.175374
0.0859394
0.0596329
0.0506332
0.062138
0.0675598
0.0755594
0.0902426
0.0788606
0.0645339
0.0561214
0.0501357
0.0454817
0.0418562
0.0395437
0.037637
0.0363647
0.0354309
0.0341389
0.0326059
0.0316962
0.0298824
0.030575
0.0309239
0.339314
0.175799
0.0855877
0.0568433
0.0555083
0.0584806
0.0751895
0.0810452
0.0914876
0.0925498
0.0756547
0.0630807
0.0548037
0.0483813
0.0427177
0.038629
0.0357745
0.0338635
0.0321712
0.0305244
0.0293372
0.0285619
0.0282488
0.0287324
0.0316285
0.337099
0.174823
0.093188
0.0617303
0.0629661
0.0697156
0.075883
0.0854985
0.0905891
0.0885312
0.0788564
0.0648888
0.05496
0.0473678
0.0425191
0.0390497
0.036583
0.0344472
0.0323256
0.0305148
0.0291378
0.0291307
0.0289192
0.0332566
0.0354642
0.337314
0.165505
0.102104
0.0686431
0.0553163
0.0602766
0.0697199
0.0790728
0.0861486
0.0876354
0.0784061
0.06525
0.0553962
0.0484974
0.0438129
0.039972
0.0373113
0.0356971
0.033649
0.0313705
0.0320113
0.0307932
0.0312774
0.0355345
0.0374253
0.337001
0.154627
0.10511
0.0701148
0.0679991
0.0600451
0.0732626
0.0791824
0.0846849
0.0811692
0.0710897
0.0614532
0.0518541
0.0471307
0.0430347
0.0421507
0.0388623
0.0406575
0.0408012
0.0370263
0.036787
0.0359745
0.0347737
0.0350562
0.0386913
0.335922
0.147859
0.107128
0.0750882
0.0623674
0.0722555
0.0809845
0.0869151
0.0835987
0.0747596
0.066456
0.0589338
0.0501764
0.0446421
0.0417054
0.0381239
0.0394939
0.0407631
0.0369153
0.0379359
0.035781
0.0339997
0.0351198
0.0380644
0.0418714
0.335069
0.146625
0.107571
0.0774406
0.0758772
0.0835631
0.0919486
0.0873838
0.076082
0.0683724
0.0609283
0.0530155
0.045687
0.0407729
0.0366971
0.0391315
0.0396462
0.0388822
0.0385466
0.0378221
0.037466
0.0372155
0.035396
0.0364216
0.0420847
0.336816
0.142125
0.105198
0.0802636
0.0788919
0.0992152
0.0967105
0.0839022
0.0713938
0.0625704
0.0552228
0.0494452
0.0434832
0.0397281
0.0350622
0.0380402
0.038856
0.0378854
0.0372245
0.036181
0.0340735
0.0328001
0.0343248
0.0344928
0.0421992
0.337109
0.145276
0.107756
0.0844491
0.103539
0.110616
0.0911029
0.0776553
0.0694593
0.063011
0.055276
0.0487029
0.0442686
0.0393002
0.035795
0.0337078
0.0312306
0.0330306
0.0325612
0.0327906
0.0304463
0.0293907
0.0304811
0.0310064
0.0408169
0.338355
0.150389
0.0946386
0.105227
0.144213
0.124568
0.0900516
0.0777795
0.0700342
0.0627638
0.0578715
0.0488816
0.0452904
0.0408726
0.0369871
0.0332041
0.0303723
0.0295325
0.0302059
0.0290777
0.0287649
0.0283208
0.0299341
0.031397
0.0424967
0.339372
0.153013
0.0899876
0.127271
0.140055
0.104987
0.0862835
0.0772244
0.0716808
0.0646442
0.0578581
0.0514478
0.0450039
0.0410102
0.0351924
0.0308379
0.0304152
0.02883
0.0268172
0.0279024
0.0263412
0.0268411
0.0269588
0.0290998
0.0415666
0.341568
0.148632
0.0975473
0.14904
0.14228
0.0985824
0.0847182
0.0794286
0.0733413
0.0677516
0.0612116
0.0534306
0.0464838
0.0416033
0.0355541
0.0297283
0.0278257
0.0280896
0.0266088
0.0244666
0.0244382
0.0238124
0.0250694
0.0294997
0.0407555
0.341354
0.137555
0.122955
0.154715
0.127836
0.0925765
0.0806909
0.0752577
0.07361
0.0702814
0.0630559
0.0584322
0.0497293
0.0423846
0.0360442
0.0297008
0.0272356
0.0251509
0.0235297
0.0230768
0.0224991
0.0215289
0.0225345
0.0275054
0.0388535
0.339406
0.130331
0.140038
0.159999
0.122278
0.0890723
0.0805108
0.0759395
0.0748897
0.0708798
0.0642817
0.0579801
0.0503535
0.0412173
0.0367278
0.0311237
0.0266576
0.0254125
0.0227932
0.0208747
0.0216236
0.0213056
0.0218246
0.0268505
0.0368234
0.334312
0.132332
0.156818
0.168852
0.116862
0.09032
0.0807273
0.0787525
0.0883599
0.0799251
0.0692427
0.0579698
0.0493689
0.0412392
0.0361137
0.0319993
0.0268938
0.0250436
0.0227235
0.0208903
0.0208862
0.0211541
0.0217927
0.0238572
0.0319817
0.333269
0.136059
0.167104
0.174153
0.116051
0.0992384
0.0988927
0.109771
0.11758
0.138798
0.115537
0.0779548
0.0562503
0.043382
0.0355519
0.0317439
0.0281063
0.0255863
0.0225517
0.0209229
0.0202315
0.0201017
0.0206377
0.02117
0.0280617
0.335983
0.142665
0.158308
0.177538
0.122372
0.102284
0.106115
0.129798
0.12937
0.137028
0.127793
0.104021
0.0673432
0.0488436
0.0375735
0.0315908
0.0268195
0.025511
0.0221649
0.0208741
0.0209924
0.0207076
0.0210774
0.0210563
0.0249503
0.344315
0.152098
0.13323
0.208975
0.147752
0.126094
0.120988
0.124831
0.129696
0.122548
0.122666
0.113569
0.0960754
0.06255
0.0427087
0.0333754
0.028123
0.0250347
0.0234668
0.0214444
0.0206126
0.0201899
0.020955
0.0208966
0.0242975
0.351763
0.151087
0.100093
0.196283
0.220536
0.194269
0.189427
0.16485
0.145124
0.130498
0.112843
0.0994565
0.0890507
0.0657796
0.0470607
0.0358118
0.0290965
0.0254295
0.0235384
0.0225508
0.0218112
0.0212172
0.0212487
0.022745
0.0260714
0.34315
0.116762
0.0865938
0.15654
0.239623
0.283509
0.274721
0.281619
0.24678
0.208606
0.170453
0.135374
0.109671
0.0921459
0.0706443
0.0501274
0.037113
0.0306128
0.0277405
0.0259531
0.0253148
0.025463
0.0258555
0.027465
0.0322187
0.0213646
0.0210173
0.0245647
0.0317995
0.0344264
0.0458384
0.0470028
0.0482483
0.048492
0.0478144
0.0482186
0.0492171
0.0506027
0.0529409
0.0518257
0.0493208
0.0470583
0.0447819
0.0430027
0.0436852
0.0424693
0.0398908
0.0385499
0.0383335
0.0390165
0.0200782
0.0190466
0.0283865
0.0319297
0.0326588
0.0340173
0.0346794
0.0364755
0.0387107
0.0415705
0.0448372
0.0518382
0.0543669
0.0558437
0.0547421
0.0555559
0.0567061
0.0603923
0.0621508
0.0644595
0.0657186
0.0695938
0.0676681
0.0687832
0.0690381
0.321858
0.143816
0.100905
0.0832435
0.0802643
0.0714349
0.0849556
0.114248
0.121822
0.115234
0.110419
0.121532
0.114146
0.107987
0.0982789
0.0993307
0.0927453
0.0855719
0.0794881
0.0730609
0.0675777
0.0634414
0.0596278
0.0582571
0.0577086
0.33924
0.14883
0.105535
0.0768653
0.072143
0.0765968
0.0801955
0.0953587
0.0816208
0.0761197
0.070394
0.0685342
0.0749202
0.0807625
0.0889646
0.0873462
0.0803022
0.0730597
0.0665769
0.0603465
0.0547073
0.0489057
0.0466606
0.0453037
0.044323
0.340886
0.158123
0.0970595
0.0704304
0.0630763
0.0748209
0.086454
0.0985979
0.0805136
0.0675845
0.0633113
0.0591534
0.0599346
0.0594701
0.0623436
0.0617955
0.0588694
0.0543878
0.0507505
0.0467182
0.0431317
0.0404043
0.0388663
0.038523
0.0380285
0.339438
0.162316
0.0972551
0.0744256
0.0579596
0.0690086
0.0830858
0.101945
0.0835558
0.069114
0.0609374
0.0538156
0.0472745
0.0474635
0.0456826
0.0441379
0.0418851
0.0396921
0.0378374
0.0364871
0.0350154
0.0333138
0.0337768
0.0333999
0.0348716
0.337603
0.161582
0.0973193
0.0710617
0.0722883
0.0778173
0.0876096
0.10906
0.0994274
0.0817784
0.070999
0.0612047
0.0535643
0.0455883
0.040932
0.0385665
0.0364302
0.0341587
0.0325875
0.0313841
0.0302467
0.0321187
0.0322908
0.0317647
0.0353303
0.337156
0.158498
0.101686
0.0719351
0.0699539
0.0719948
0.0860679
0.0950131
0.0945686
0.0785294
0.0693465
0.0579834
0.0511059
0.0451604
0.0401768
0.0364737
0.0337455
0.0318645
0.0300328
0.0315551
0.0322219
0.0327493
0.0319406
0.0337546
0.0395295
0.337908
0.143792
0.106409
0.074471
0.0724218
0.076898
0.0896855
0.0973225
0.0904652
0.0774278
0.06296
0.0546315
0.0509042
0.0457347
0.0406101
0.0372957
0.0342513
0.0350516
0.0356609
0.0354405
0.0333418
0.0317819
0.0343521
0.036481
0.0458064
0.337066
0.141324
0.107356
0.0799344
0.0694697
0.0787245
0.0986523
0.0977716
0.0849489
0.0720906
0.0604244
0.0498495
0.0519542
0.0514529
0.0498912
0.0489165
0.0431942
0.0422084
0.0418219
0.0371473
0.0389199
0.0357115
0.0383277
0.0391047
0.0515873
0.335916
0.147066
0.107689
0.0842629
0.0849942
0.0948076
0.102297
0.0940528
0.0794286
0.0679396
0.0592063
0.0489307
0.0450653
0.0425335
0.0449751
0.0445371
0.0409918
0.0438883
0.0389328
0.0412398
0.0376565
0.034787
0.0390592
0.0393697
0.0559965
0.336424
0.150301
0.0893242
0.0845688
0.0918498
0.113785
0.103929
0.0850726
0.070927
0.0615978
0.0546553
0.0459892
0.0423269
0.0379493
0.0414639
0.0401059
0.0391892
0.0395348
0.0380708
0.0344997
0.036517
0.0340184
0.0367377
0.0385988
0.0590054
0.338415
0.146225
0.0822285
0.0870375
0.130063
0.127321
0.097245
0.0782779
0.0689595
0.0611159
0.0528295
0.0461288
0.0406803
0.0380199
0.0390346
0.0380087
0.0377136
0.0363467
0.0358788
0.0324969
0.035437
0.0351325
0.0359164
0.0379585
0.0612925
0.339582
0.1385
0.079832
0.107023
0.137577
0.119738
0.0895351
0.0776783
0.0684677
0.061139
0.0552496
0.046902
0.0411548
0.0384165
0.0357154
0.0324975
0.0311873
0.0315146
0.0322896
0.0292118
0.031551
0.0300255
0.0322297
0.0352307
0.0645256
0.340253
0.127491
0.0896016
0.151524
0.157967
0.108614
0.087409
0.0764319
0.0717928
0.0647254
0.0583279
0.048636
0.0435887
0.0406484
0.0368383
0.0331577
0.0300959
0.0316557
0.0316325
0.0293003
0.0313446
0.0296705
0.0330602
0.03824
0.0714731
0.338333
0.122142
0.132353
0.178335
0.142703
0.0994011
0.0840624
0.0802514
0.0775982
0.0707319
0.0602559
0.0509784
0.047048
0.0412999
0.0352157
0.0315251
0.0280504
0.0276303
0.0296135
0.0294247
0.0277076
0.0285188
0.0304803
0.0368223
0.0732936
0.336509
0.121729
0.171955
0.171814
0.124834
0.0944314
0.08958
0.0897814
0.0876294
0.0784178
0.0669391
0.054405
0.0476345
0.0424025
0.0361756
0.0315006
0.0274513
0.0253672
0.0251726
0.0251989
0.0243681
0.0260378
0.0273225
0.034462
0.0725859
0.330892
0.127823
0.190151
0.173721
0.109134
0.0852305
0.0813733
0.083072
0.0844103
0.0842552
0.0725614
0.0603576
0.0489292
0.0412173
0.0347697
0.0312085
0.0278049
0.0245724
0.0233543
0.023219
0.0214789
0.0243466
0.0246229
0.0327082
0.0669354
0.327984
0.134861
0.195515
0.164472
0.102967
0.0828535
0.0828592
0.0849075
0.0846363
0.0876789
0.0798784
0.0624412
0.0493909
0.0428446
0.0368719
0.0313711
0.0272909
0.0248782
0.0234726
0.0230566
0.0218555
0.0227429
0.0229989
0.0299042
0.0590312
0.326237
0.139134
0.198732
0.154433
0.095763
0.0838009
0.0903408
0.104078
0.130891
0.120171
0.0943875
0.0792633
0.0548583
0.0440634
0.0360715
0.030937
0.0270046
0.0253796
0.0229257
0.0221465
0.0219459
0.0223957
0.0219753
0.0280472
0.050284
0.326104
0.129607
0.198334
0.151632
0.094241