/*--------------------------------*- C++ -*----------------------------------*\
  =========                 |
  \\      /  F ield         | OpenFOAM: The Open Source CFD Toolbox
   \\    /   O peration     | Website:  https://openfoam.org
    \\  /    A nd           | Version:  11
     \\/     M anipulation  |
\*---------------------------------------------------------------------------*/
FoamFile
{
    format      ascii;
    class       volScalarField;
    location    "40";
    object      p;
}
// * * * * * * * * * * * * * * * * * * * * * * * * * * * * * * * * * * * * * //

dimensions      [0 2 -2 0 0 0 0];

internalField   nonuniform List<scalar> 
17196
(
4.91681
4.2268
3.00199
2.5775
3.74888
4.79493
4.98564
4.11708
2.11463
-1.18141
-5.34396
-9.53256
-13.1746
-15.8827
-17.377
-17.4476
-16.2936
-14.6565
-12.8042
-10.9379
-8.98033
-6.75272
-4.40747
-1.54003
-1.20575
4.88801
4.05482
2.74983
2.27342
3.4666
4.71685
5.07767
4.57211
2.75011
-0.567137
-4.73264
-8.94316
-12.6143
-15.3368
-16.869
-16.952
-15.8215
-14.1776
-12.3808
-10.6748
-8.90057
-6.5339
-4.07718
-1.57887
-0.84157
4.88505
3.98526
2.76743
2.14722
2.92788
4.21765
4.69743
4.15499
2.43959
-0.716939
-4.78822
-8.86801
-12.4094
-15.0284
-16.5659
-16.631
-15.4428
-13.6985
-11.9565
-10.4119
-8.70228
-6.24484
-3.70709
-2.13369
-0.967967
4.86733
4.06047
2.80407
1.91125
2.1672
3.19942
3.63662
2.94538
0.999264
-2.03086
-5.92253
-9.78423
-13.1287
-15.5884
-16.9789
-16.8324
-15.4379
-13.6417
-11.9885
-10.4704
-8.66216
-6.1323
-3.54906
-2.6627
-1.3146
4.8332
4.20359
2.90762
1.71249
1.39984
1.80785
1.89667
1.09978
-0.962752
-4.05836
-7.81716
-11.5018
-14.6934
-16.9959
-18.1435
-17.6743
-16.086
-14.2445
-12.5545
-10.862
-8.77637
-6.05042
-3.55634
-3.17378
-1.85838
4.76742
4.25202
2.9867
1.62407
0.95038
0.534864
0.125093
-0.96124
-2.91546
-6.13693
-9.8775
-13.4689
-16.5653
-18.7698
-19.6901
-18.9621
-17.1812
-15.2024
-13.3817
-11.4737
-9.02619
-5.95818
-3.4999
-3.48182
-2.36036
4.66132
4.06014
2.72596
1.3963
0.606637
-0.0576431
-0.826076
-2.11027
-4.00826
-7.18627
-11.0034
-14.6105
-17.6226
-19.7317
-20.5087
-19.6529
-17.7456
-15.6428
-13.697
-11.6359
-8.90098
-5.48512
-2.8658
-3.08442
-2.60701
4.49543
3.68545
2.09426
0.690514
0.0360103
-0.343066
-0.924223
-1.95003
-3.78325
-6.79221
-10.5859
-14.2275
-17.2175
-19.2112
-19.8771
-18.9932
-17.0636
-14.927
-12.9264
-10.8035
-7.9789
-4.43636
-1.59589
-2.40578
-2.16236
4.30815
3.29636
1.37967
-0.23852
-0.800857
-0.706475
-0.856096
-1.3515
-2.79097
-5.54057
-9.16761
-12.7424
-15.7267
-17.6298
-18.1771
-17.2735
-15.3869
-13.2878
-11.3045
-9.17671
-6.38449
-2.94042
-0.177689
-1.41427
-1.62937
4.07677
2.91717
0.772624
-0.892251
-1.18509
-0.829951
-0.629764
-0.870485
-2.08164
-4.52536
-7.84158
-11.1648
-14.0108
-15.8336
-16.3218
-15.4372
-13.6438
-11.6211
-9.6781
-7.53607
-4.76413
-1.38799
0.938138
-0.357216
-1.32664
3.81374
2.57221
0.321506
-1.07681
-0.77171
0.00294115
0.334775
-0.117123
-1.58077
-4.14664
-7.31352
-10.3256
-12.8844
-14.5015
-14.8829
-14.0472
-12.4056
-10.5061
-8.61975
-6.4228
-3.5582
-0.0212214
2.03969
0.557561
-1.31894
3.56393
2.2723
0.0782955
-0.734315
0.426384
1.75018
2.17631
1.40349
-0.601928
-3.66313
-7.06435
-10.1771
-12.5315
-13.8414
-14.0208
-13.1431
-11.6126
-9.87642
-8.09826
-5.8883
-2.86612
0.893793
2.79765
1.1622
-1.68383
3.31354
2.0357
0.113976
0.201632
2.31853
4.15587
4.47175
3.20367
0.610644
-2.92292
-6.65451
-9.92426
-12.2768
-13.4856
-13.5512
-12.6339
-11.1714
-9.55762
-7.85991
-5.68066
-2.61031
1.03359
2.79951
1.20471
-1.60114
3.00287
1.89105
0.485011
1.72815
4.76085
6.89701
6.83095
4.89823
1.67513
-2.32473
-6.2748
-9.54496
-11.8205
-12.9436
-12.9728
-12.1015
-10.7496
-9.26838
-7.69689
-5.59192
-2.51182
0.911797
2.78574
1.43895
-1.0078
2.67633
1.85707
1.18325
3.6668
7.45549
9.5922
8.9114
6.18484
2.3093
-2.0791
-6.11709
-9.29068
-11.3668
-12.2946
-12.2377
-11.4051
-10.1574
-8.79928
-7.39138
-5.46019
-2.49817
0.632471
3.19186
2.03053
-0.660028
2.40523
1.90461
2.00845
5.65298
10.0251
11.9321
10.5414
7.00306
2.51025
-2.17113
-6.20038
-9.19466
-11.0121
-11.6904
-11.4785
-10.6108
-9.42233
-8.15479
-6.87144
-5.16736
-2.40615
0.161387
3.61919
3.79065
-1.91387
2.26232
1.93923
2.69914
7.31428
12.0687
13.6971
11.6738
7.4422
2.41458
-2.47903
-6.45315
-9.21944
-10.7759
-11.2148
-10.8113
-9.84607
-8.66371
-7.45541
-6.24821
-4.71315
-2.2655
0.0908038
2.83316
6.75787
0.841699
2.28813
1.90866
3.08481
8.29757
13.2543
14.7829
12.4117
7.70257
2.27349
-2.76188
-6.68336
-9.24229
-10.565
-10.8035
-10.2347
-9.12837
-7.89663
-6.71534
-5.57229
-4.17395
-2.05646
0.275152
2.41276
3.88495
0.271332
2.31091
1.80302
3.12103
8.42742
13.5628
15.2853
12.8993
7.96864
2.30713
-2.81647
-6.73506
-9.18388
-10.3421
-10.4159
-9.72519
-8.48885
-7.16827
-5.98
-4.896
-3.60587
-1.76944
0.314875
2.15769
3.15862
1.05598
2.2722
1.73658
2.89409
7.80761
13.1041
15.2994
13.235
8.38644
2.65778
-2.53789
-6.50254
-8.96992
-10.0722
-10.051
-9.25656
-7.92476
-6.52437
-5.3149
-4.27481
-3.09298
-1.47005
0.319371
2.0698
3.06115
1.84478
2.30149
1.75167
2.5775
6.79551
12.0019
14.7815
13.3709
8.93678
3.32888
-1.89023
-5.9417
-8.53823
-9.71392
-9.70522
-8.85085
-7.45579
-6.00973
-4.79653
-3.795
-2.73637
-1.28556
0.315529
2.03368
2.99372
2.19293
2.4528
1.84925
2.30888
5.65468
10.3842
13.5914
12.971
9.2263
3.95635
-1.14314
-5.20022
-7.89585
-9.19747
-9.26711
-8.43192
-7.03163
-5.5822
-4.38316
-3.43352
-2.48985
-1.21562
0.29208
1.94809
2.8573
2.30187
2.74552
2.11054
2.23273
4.70321
8.71805
11.9251
11.8679
8.80733
4.07162
-0.733364
-4.63818
-7.25089
-8.54311
-8.65433
-7.87036
-6.51972
-5.11595
-3.96205
-3.08609
-2.23634
-1.13262
0.281967
1.93784
2.72623
2.12576
3.07952
2.45892
2.46284
4.25729
7.5812
10.483
10.494
7.69591
3.38476
-1.03469
-4.63565
-7.0163
-8.13211
-8.13243
-7.28227
-5.92142
-4.51931
-3.38602
-2.54155
-1.78081
-0.798835
0.465674
2.02239
2.67224
1.39136
3.31358
2.7411
2.90097
4.55493
7.53808
10.269
10.3061
7.68073
3.6331
-0.575066
-4.03506
-6.33822
-7.42874
-7.43719
-6.6227
-5.31728
-3.95782
-2.84713
-1.99158
-1.24005
-0.314125
0.868071
2.2442
2.52037
1.22344
4.34856
3.75263
1.98252
0.537141
0.674032
1.31835
1.3446
0.270362
-2.17603
-5.37319
-8.94571
-12.5062
-15.717
-18.1417
-19.3315
-19.0412
-17.6372
-15.7413
-13.7053
-11.7309
-9.68086
-7.48498
-4.83481
-2.49301
-1.05796
4.24975
3.51126
1.54722
0.240038
0.299815
0.936331
0.877156
-0.150471
-2.36738
-5.35572
-8.82002
-12.3777
-15.6152
-18.0521
-19.2451
-18.9334
-17.5729
-15.7354
-13.7774
-11.9086
-9.90202
-7.5679
-4.8323
-2.87999
-1.09089
4.17694
3.31082
1.22623
0.0115301
-0.0787994
0.550312
0.417879
-0.530807
-2.55189
-5.4064
-8.78355
-12.2351
-15.3448
-17.6264
-18.6838
-18.3486
-16.9895
-15.2116
-13.365
-11.6128
-9.69069
-7.36895
-4.69767
-3.15739
-1.23925
4.09166
3.1255
0.921499
-0.411069
-0.602384
-0.165294
-0.413847
-1.27659
-3.19408
-6.00423
-9.33719
-12.7148
-15.7133
-17.8636
-18.7372
-18.2035
-16.756
-15.0295
-13.2995
-11.6133
-9.69726
-7.34427
-4.78206
-3.74033
-1.67493
3.95076
2.95245
0.662838
-0.862688
-1.22975
-1.22311
-1.6931
-2.55643
-4.30227
-7.08709
-10.4344
-13.7677
-16.6099
-18.552
-19.1706
-18.4264
-16.8858
-15.1894
-13.5389
-11.8071
-9.72179
-7.19196
-4.78846
-4.46057
-2.31225
3.7159
2.67267
0.402564
-1.23307
-1.80365
-2.14745
-2.89333
-4.05431
-5.72573
-8.37949
-11.7574
-15.0924
-17.7853
-19.4905
-19.84
-18.8856
-17.2102
-15.4702
-13.8461
-12.0681
-9.77218
-6.86429
-4.56144
-5.23971
-3.76004
3.42974
2.23257
-0.012175
-1.58543
-2.21299
-2.61781
-3.46313
-4.82922
-6.65946
-9.27132
-12.5497
-15.8488
-18.4819
-20.0372
-20.2055
-19.0766
-17.279
-15.4739
-13.8468
-12.0379
-9.59438
-6.30148
-3.87059
-5.73342
-5.0317
3.12614
1.69708
-0.601301
-2.08446
-2.54363
-2.69279
-3.4568
-4.82743
-6.77405
-9.45195
-12.6486
-15.8292
-18.3807
-19.8475
-19.926
-18.6951
-16.8383
-15.0036
-13.3582
-11.4796
-8.92331
-5.31084
-2.6511
-5.34428
-5.54685
2.84745
1.19101
-1.15141
-2.42573
-2.74008
-2.75724
-3.22093
-4.3221
-6.25453
-8.99081
-12.167
-15.2462
-17.6584
-19.007
-19.0167
-17.7324
-15.839
-13.9741
-12.271
-10.2651
-7.5813
-3.78017
-0.968023
-4.17312
-4.04362
2.5839
0.726542
-1.58608
-2.54169
-2.62335
-2.53245
-2.79664
-3.67209
-5.48973
-8.27166
-11.4257
-14.3386
-16.5416
-17.7299
-17.6701
-16.3745
-14.4565
-12.5451
-10.8025
-8.73607
-5.9727
-1.98813
0.631431
-2.9001
-3.15698
2.3667
0.324389
-1.91711
-2.52471
-2.26775
-1.94498
-2.00961
-2.81232
-4.69236
-7.57534
-10.7506
-13.4961
-15.4268
-16.3962
-16.2484
-14.9787
-13.0963
-11.1798
-9.424
-7.3454
-4.48749
-0.234197
2.07614
-2.94725
-3.35452
2.18583
-0.0588115
-2.14385
-2.38601
-1.69848
-1.06316
-0.963844
-1.8
-3.85627
-6.86794
-10.0886
-12.792
-14.5832
-15.3629
-15.1205
-13.8689
-12.0428
-10.1622
-8.39099
-6.32232
-3.41819
0.856271
2.93787
-2.80988
-3.3621
2.02717
-0.417988
-2.26457
-2.0294
-0.836357
0.118799
0.218166
-0.873592
-3.21728
-6.37018
-9.5616
-12.1657
-13.8248
-14.4814
-14.2231
-13.0632
-11.3631
-9.56842
-7.81261
-5.75586
-2.95858
1.0677
2.73517
-1.7934
-2.78824
1.87446
-0.732003
-2.26432
-1.38402
0.348822
1.48876
1.3333
-0.217726
-2.89898
-6.1396
-9.23275
-11.6758
-13.1427
-13.6159
-13.3223
-12.2744
-10.7678
-9.14704
-7.51426
-5.53971
-2.93086
1.00424
2.68154
0.0348211
-1.79416
1.68688
-0.970279
-2.11545
-0.504161
1.72181
2.8238
2.17016
0.0309137
-2.99445
-6.26154
-9.20416
-11.4298
-12.6454
-12.8794
-12.4595
-11.4408
-10.0779
-8.64614
-7.21972
-5.43086
-3.07908
0.841896
2.66873
2.27298
-0.602363
1.4973
-1.13724
-1.85449
0.401818
3.0031
3.8906
2.60692
-0.138156
-3.49276
-6.76759
-9.50874
-11.4265
-12.3424
-12.3252
-11.7131
-10.6188
-9.30131
-8.00234
-6.77567
-5.1862
-3.03901
0.662157
2.69808
3.52206
-0.118687
1.39971
-1.1943
-1.613
1.04989
3.92911
4.54205
2.65195
-0.650363
-4.32104
-7.61261
-10.1029
-11.6435
-12.2167
-11.9213
-11.0914
-9.86984
-8.51712
-7.27025
-6.17123
-4.76537
-2.82344
0.321258
2.34561
2.36956
-0.368662
1.42012
-1.18128
-1.51601
1.37818
4.38351
4.76675
2.40372
-1.35665
-5.33351
-8.6346
-10.8676
-12.029
-12.2397
-11.6433
-10.5784
-9.20126
-7.76207
-6.48496
-5.43617
-4.18861
-2.48368
0.0775097
1.97485
2.13621
0.0884426
1.51092
-1.09566
-1.58701
1.40355
4.41703
4.67172
2.02855
-2.04437
-6.24922
-9.58002
-11.6524
-12.539
-12.4325
-11.5347
-10.2108
-8.64204
-7.07957
-5.71209
-4.63913
-3.50652
-2.00866
0.0839765
2.00631
2.30029
0.702166
1.51782
-0.9988
-1.77032
0.898303
3.89023
4.24582
1.60041
-2.5793
-6.87605
-10.2871
-12.3751
-13.1669
-12.8442
-11.6807
-10.0768
-8.26807
-6.54828
-5.06244
-3.8998
-2.81174
-1.46121
0.24388
2.01272
2.7279
1.53549
1.53433
-0.872793
-2.0906
-0.22143
2.51258
3.22159
0.928629
-3.109
-7.31467
-10.7506
-12.9659
-13.8747
-13.511
-12.1664
-10.2922
-8.2038
-6.27755
-4.65082
-3.35487
-2.22838
-0.988629
0.379607
2.0639
2.94817
1.88873
1.62306
-0.703887
-2.40137
-1.70629
0.236964
1.16507
-0.558645
-4.17309
-8.11968
-11.3911
-13.5554
-14.5226
-14.2015
-12.8114
-10.7592
-8.43002
-6.28522
-4.50055
-3.06038
-1.81885
-0.612698
0.510214
2.09706
2.89258
2.05321
1.84075
-0.441206
-2.46725
-3.08715
-2.47053
-1.96561
-3.40797
-6.5501
-10.037
-12.8768
-14.6457
-15.2572
-14.678
-13.1363
-10.9567
-8.49584
-6.21386
-4.31308
-2.76204
-1.41773
-0.140792
0.875386
2.2507
2.75784
1.89864
2.08982
-0.04531
-2.15754
-3.63552
-4.33786
-4.73915
-6.45145
-9.40878
-12.4899
-14.8556
-16.1336
-16.2372
-15.2125
-13.316
-10.8958
-8.29621
-5.92519
-3.97442
-2.36882
-0.985873
0.306296
1.40494
2.56391
2.67356
1.59379
2.27671
0.47291
-1.42521
-2.46928
-3.08048
-3.74754
-5.61697
-8.58497
-11.6568
-14.0026
-15.2611
-15.3206
-14.2562
-12.3271
-9.88925
-7.30201
-4.95414
-3.03724
-1.46712
-0.14375
1.07414
2.28558
3.38585
2.90868
1.31395
3.73868
3.39598
1.778
0.107151
-0.664278
-0.836468
-1.44907
-2.88616
-5.29463
-8.33162
-11.6182
-14.7744
-17.4443
-19.2663
-19.9444
-19.3825
-17.9613
-16.1144
-14.1347
-12.1662
-9.85606
-7.40835
-4.58655
-2.16857
-0.234039
3.61561
3.18461
1.5587
-0.068307
-0.874133
-0.98879
-1.6434
-3.1614
-5.48314
-8.40954
-11.7004
-14.8945
-17.5758
-19.4013
-20.0789
-19.4669
-18.0137
-16.1686
-14.1965
-12.2775
-10.0239
-7.52077
-4.71334
-2.79057
-0.378343
3.50565
2.96358
1.23124
-0.39894
-1.27415
-1.38746
-2.03897
-3.47595
-5.60524
-8.37826
-11.5657
-14.6931
-17.3176
-19.0887
-19.6499
-18.9244
-17.4283
-15.6087
-13.7154
-11.9202
-9.94586
-7.47301
-4.84689
-3.03119
-0.366544
3.35626
2.63048
0.773119
-0.940379
-1.76261
-1.9437
-2.67341
-3.97465
-5.84927
-8.50893
-11.7095
-14.8647
-17.4988
-19.2193
-19.6201
-18.7444
-17.1718
-15.3811
-13.6013
-11.8342
-10.0102
-7.4356
-4.89619
-3.42503
-0.787771
3.10278
2.23644
0.260307
-1.44282
-2.25278
-2.54455
-3.40839
-4.74079
-6.21187
-8.75065
-12.0286
-15.1969
-17.7414
-19.3176
-19.5409
-18.5375
-16.9428
-15.2214
-13.5635
-11.8257
-9.8823
-7.15202
-4.79456
-4.08195
-1.60006
2.7712
1.80366
-0.255144
-1.92577
-2.69802
-3.06083
-3.8084
-5.08826
-6.78356
-9.291
-12.4601
-15.5202
-17.8855
-19.248
-19.2851
-18.1655
-16.5775
-14.9297
-13.3534
-11.6389
-9.51232
-6.58658
-4.49843
-5.00112
-2.91935
2.4599
1.38528
-0.704858
-2.27676
-2.89863
-3.20488
-3.87829
-5.17801
-7.03073
-9.58474
-12.6359
-15.5442
-17.7211
-18.8598
-18.7112
-17.4624
-15.8524
-14.255
-12.7453
-11.0187
-8.78641
-5.62941
-3.98726
-6.09556
-4.95075
2.20099
1.02364
-1.03437
-2.3776
-2.81796
-3.06787
-3.76007
-5.08476
-7.01052
-9.57781
-12.5229
-15.2636
-17.2334
-18.1519
-17.8328
-16.4543
-14.7803
-13.1993
-11.7289
-9.95641
-7.61896
-4.20536
-2.99575
-6.40944
-5.9417
1.99769
0.7352
-1.25326
-2.30954
-2.63654
-2.93791
-3.61653
-4.90735
-6.86869
-9.43893
-12.2347
-14.7424
-16.4583
-17.1654
-16.7205
-15.2506
-13.5136
-11.9199
-10.4533
-8.61695
-6.10734
-2.47023
-1.59911
-5.32377
-6.27092
1.8267
0.476346
-1.41089
-2.26138
-2.50407
-2.87376
-3.56949
-4.81353
-6.78915
-9.29509
-11.8725
-14.0869
-15.5155
-16.0246
-15.5011
-13.9992
-12.2305
-10.6117
-9.14173
-7.23516
-4.48531
-0.469985
0.0258025
-4.73572
-4.8678
1.68763
0.236635
-1.53058
-2.25023
-2.4484
-2.88044
-3.62072
-4.86845
-6.86116
-9.25991
-11.6311
-13.5743
-14.7343
-15.0365
-14.4398
-12.9469
-11.1479
-9.48442
-7.9817
-5.96524
-2.98458
1.4239
1.71252
-4.83882
-4.42526
1.57422
-0.00290265
-1.60486
-2.21194
-2.43217
-2.9459
-3.75366
-5.09073
-7.09851
-9.38374
-11.5743
-13.2939
-14.2576
-14.3517
-13.665
-12.1893
-10.3649
-8.65581
-7.10375
-5.06362
-2.05395
2.38264
2.66859
-4.69909
-4.05136
1.48889
-0.244306
-1.65036
-2.12308
-2.40476
-3.06495
-4.02994
-5.54364
-7.56854
-9.7626
-11.7932
-13.3249
-14.1
-14.0184
-13.2434
-11.7886
-9.9732
-8.23152
-6.62448
-4.66261
-1.81362
2.44571
2.47956
-4.32207
-3.17035
1.44011
-0.476984
-1.69613
-1.96947
-2.35439
-3.23993
-4.49712
-6.25754
-8.3352
-10.4336
-12.2976
-13.6338
-14.2033
-13.9567
-13.0924
-11.6478
-9.87835
-8.13718
-6.51408
-4.66093
-2.0724
1.97638
2.29237
-3.2354
-1.89077
1.40731
-0.695595
-1.72592
-1.78864
-2.3286
-3.54549
-5.21048
-7.2528
-9.40396
-11.3847
-13.0218
-14.1151
-14.4591
-14.046
-13.0902
-11.633
-9.91576
-8.21415
-6.62348
-4.83103
-2.70452
0.747207
2.17215
-2.08264
-0.529414
1.37595
-0.840636
-1.67927
-1.59896
-2.40253
-4.04317
-6.15278
-8.49359
-10.734
-12.5576
-13.873
-14.6307
-14.7065
-14.1058
-13.0509
-11.5613
-9.87928
-8.24261
-6.7183
-5.01071
-3.15361
0.0657526
1.98962
-0.639848
-0.260909
1.3478
-0.895161
-1.49024
-1.48897
-2.65468
-4.72242
-7.24483
-9.87248
-12.2334
-13.8679
-14.7735
-15.1002
-14.8396
-14.0146
-12.8309
-11.303
-9.63821
-8.05563
-6.60528
-4.97692
-3.22109
-0.319465
1.72498
0.436691
-0.145641
1.3287
-0.899251
-1.3337
-1.56797
-3.10209
-5.54092
-8.40143
-11.2631
-13.6714
-15.0603
-15.5564
-15.4504
-14.8293
-13.7413
-12.3824
-10.7871
-9.12326
-7.55705
-6.16302
-4.61502
-2.99668
-0.476008
1.6507
1.3771
0.339985
1.28461
-0.889897
-1.32111
-1.88311
-3.73453
-6.43533
-9.50391
-12.4832
-14.843
-16.0051
-16.1736
-15.6817
-14.6968
-13.3137
-11.7404
-10.0345
-8.33871
-6.75055
-5.37799
-3.92006
-2.40792
-0.247565
1.78485
2.11749
0.99881
1.20351
-0.882927
-1.49291
-2.52704
-4.67655
-7.49399
-10.6077
-13.5412
-15.7927
-16.8258
-16.8136
-16.0269
-14.6649
-12.9214
-11.0627
-9.16237
-7.36474
-5.71738
-4.31863
-2.92345
-1.47551
0.35718
2.19634
2.84996
1.52158
1.1215
-0.871267
-1.84769
-3.55954
-6.12809
-8.99422
-12.0286
-14.83
-16.9144
-17.9171
-17.8341
-16.8406
-15.1032
-12.9155
-10.6388
-8.40726
-6.39157
-4.62119
-3.14029
-1.75571
-0.351327
1.17567
2.87993
3.41925
1.76332
1.10871
-0.843134
-2.31798
-4.91915
-8.27645
-11.4268
-14.4637
-17.1582
-19.0687
-19.9591
-19.7678
-18.4759
-16.2436
-13.5314
-10.7349
-8.0401
-5.67171
-3.66815
-2.02189
-0.57402
0.808849
2.13619
3.60082
3.88817
2.29303
1.17136
-0.773527
-2.77362
-6.25491
-10.7289
-14.7524
-18.2533
-21.0009
-22.7111
-23.2781
-22.7648
-20.9992
-18.1084
-14.6784
-11.2146
-7.96732
-5.17653
-2.88081
-1.01757
0.551014
1.93758
3.19094
4.4152
4.33638
2.64881
1.28328
-0.533385
-2.98978
-6.91669
-12.1304
-17.0593
-21.2428
-24.2592
-25.9057
-26.2675
-25.5009
-23.4752
-20.2272
-16.2627
-12.146
-8.28649
-5.00609
-2.38237
-0.295582
1.43347
2.88644
4.14502
5.11108
4.5427
2.54869
1.39642
-0.15678
-2.60848
-6.03259
-10.7177
-15.4806
-19.7952
-22.9445
-24.713
-25.1797
-24.4657
-22.5621
-19.5731
-15.8334
-11.779
-7.82476
-4.37046
-1.58177
0.627649
2.44478
3.96941
5.2701
6.02818
4.83193
2.51233
3.39223
3.1505
1.81066
0.0578107
-1.1499
-2.28767
-3.82276
-6.18794
-9.24227
-12.7094
-16.2083
-19.2354
-21.4023
-22.5435
-22.6136
-21.5811
-19.7891
-17.6338
-15.3942
-13.2148
-10.7764
-8.26724
-5.81136
-3.43886
-0.450881
3.28683
2.98761
1.72188
-0.049878
-1.39872
-2.50084
-4.09404
-6.48535
-9.46432
-12.9214
-16.5107
-19.6347
-21.8266
-22.9478
-22.9803
-21.8811
-19.9951
-17.7639
-15.5178
-13.3256
-10.9201
-8.25041
-5.57994
-3.17476
-0.226575
3.16343
2.82637
1.4751
-0.396412
-1.83273
-2.93984
-4.49063
-6.71354
-9.52886
-12.9198
-16.4766
-19.5495
-21.7881
-22.9928
-23.0176
-21.7753
-19.7505
-17.4709
-15.2816
-13.1422
-10.9337
-8.2091
-5.49157
-3.05081
-0.19077
2.98856
2.50494
1.00096
-0.966915
-2.33596
-3.40805
-4.88076
-6.87818
-9.49462
-12.755
-16.3895
-19.6435
-21.9879
-23.2443
-23.2626
-21.8824
-19.78
-17.526
-15.3921
-13.2214
-11.0549
-8.36414
-5.54243
-3.27343
-0.424263
2.75345
2.09405
0.412552
-1.51641
-2.76052
-3.76168
-5.04733
-6.82193
-9.2653
-12.42
-16.0147
-19.3105
-21.7084
-23.0084
-23.0823
-21.7124
-19.651
-17.5044
-15.452
-13.2903
-11.0192
-8.31852
-5.49691
-3.89027
-0.931957
2.51165
1.70669
-0.134452
-1.94321
-3.04104
-3.91982
-5.04207
-6.71544
-9.10371
-12.1718
-15.5836
-18.7323
-21.0535
-22.2957
-22.3847
-21.0861
-19.1276
-17.1423
-15.2001
-13.0515
-10.6966
-7.99726
-5.42567
-4.37659
-1.38355
2.3147
1.42281
-0.478055
-2.12486
-3.0654
-3.84101
-4.95402
-6.6355
-9.00131
-11.9843
-15.1838
-18.0888
-20.1901
-21.2575
-21.2658
-20.0141
-18.2012
-16.3844
-14.5549
-12.4012
-10.0024
-7.33717
-5.27819
-4.56062
-1.30485
2.17541
1.25888
-0.589207
-2.03214
-2.88037
-3.75025
-4.98358
-6.72173
-9.08562
-11.9245
-14.8764
-17.5011
-19.322
-20.1705
-20.0375
-18.7809
-17.0568
-15.3218
-13.5366
-11.4027
-8.86948
-6.20029
-5.03934
-4.35599
-1.0695
2.08773
1.16363
-0.575191
-1.84831
-2.70245
-3.85686
-5.28383
-7.10793
-9.43906
-12.0768
-14.7316
-17.0425
-18.5773
-19.1916
-18.8943
-17.5836
-15.8727
-14.1304
-12.3475
-10.2153
-7.3358
-4.68939
-4.56001
-3.89502
-3.54704
2.03314
1.07586
-0.531787
-1.73118
-2.78316
-4.33627
-6.00391
-7.88039
-10.0894
-12.4655
-14.7824
-16.7467
-17.9943
-18.3417
-17.8579
-16.4715
-14.7276
-12.9808
-11.1793
-8.94556
-5.53821
-2.44246
-3.0956
-6.19776
-17.0941
1.99495
0.98312
-0.476738
-1.68474
-3.15474
-5.19737
-7.13049
-9.02287
-11.0578
-13.1564
-15.1414
-16.7457
-17.6723
-17.7424
-17.0546
-15.5722
-13.751
-11.9563
-10.1119
-7.74915
-4.01961
-0.247922
-1.37617
-5.59478
-9.1353
1.96378
0.885724
-0.405859
-1.66242
-3.8001
-6.43311
-8.64215
-10.5487
-12.4155
-14.2434
-15.8934
-17.1401
-17.7387
-17.5352
-16.6369
-15.0502
-13.1447
-11.2712
-9.37875
-6.95264
-3.32413
0.583419
-0.59492
-5.51625
-3.74606
1.94143
0.786877
-0.351875
-1.74049
-4.74571
-8.00606
-10.4737
-12.4166
-14.1574
-15.738
-17.0702
-17.9909
-18.2799
-17.8142
-16.7185
-15.0308
-13.0467
-11.085
-9.10901
-6.68788
-3.14647
0.619035
-0.725851
-4.84304
-2.25241
1.93253
0.695075
-0.322947
-2.01498
-5.97512
-9.81884
-12.5015
-14.497
-16.1556
-17.5105
-18.5496
-19.1836
-19.2068
-18.5157
-17.2529
-15.4702
-13.4145
-11.3708
-9.29726
-6.92523
-3.39259
0.2037
-1.30642
-3.70327
-1.06905
1.93173
0.605411
-0.311961
-2.51964
-7.41142
-11.7478
-14.5905
-16.637
-18.2297
-19.3384
-20.0653
-20.4288
-20.2381
-19.3864
-18.0125
-16.162
-14.0572
-11.9536
-9.80281
-7.48121
-4.10063
-0.726081
-1.5607
-3.25981
-0.113625
1.91585
0.546858
-0.315213
-3.2077
-8.93421
-13.6537
-16.6108
-18.7218
-20.2811
-21.0803
-21.3832
-21.3945
-20.9835
-20.0046
-18.576
-16.7135
-14.6079
-12.4801
-10.3145
-8.0313
-5.0353
-1.71202
-1.32769
-2.49167
0.585659
1.86963
0.54099
-0.308606
-3.98075
-10.4057
-15.4016
-18.4554
-20.6376
-22.0912
-22.5111
-22.3371
-21.9268
-21.2345
-20.1103
-18.6473
-16.8209
-14.7694
-12.666
-10.533
-8.28233
-5.63577
-2.43641
-1.06081
-1.34998
0.417922
1.80662
0.603237
-0.299192
-4.75275
-11.7474
-16.9502
-20.0782
-22.218
-23.4335
-23.4092
-22.7586
-21.9237
-20.9345
-19.6496
-18.1364
-16.3472
-14.3787
-12.3319
-10.2533
-8.04429
-5.66162
-2.72664
-0.758299
-0.420527
0.127482
1.71519
0.68257
-0.328113
-5.49409
-12.9468
-18.306
-21.4671
-23.4149
-24.2782
-23.785
-22.6577
-21.388
-20.0873
-18.6303
-17.0584
-15.3047
-13.4192
-11.4372
-9.42
-7.27533
-5.09304
-2.50213
-0.301025
0.492985
0.283361
1.57117
0.709277
-0.455122
-6.24447
-14.0768
-19.6258
-22.8264
-24.5644
-25.0065
-24.1632
-22.6977
-20.8869
-19.0714
-17.2954
-15.5823
-13.812
-11.9723
-10.0447
-8.08981
-6.01516
-3.94339
-1.68633
0.469513
1.33952
0.910097
1.41086
0.635715
-0.72289
-7.0203
-15.2719
-21.1707
-24.5314
-26.1755
-26.3628
-25.4058
-23.7713
-21.4431
-18.8174
-16.3267
-14.1867
-12.2055
-10.2922
-8.35347
-6.42312
-4.39856
-2.39408
-0.392776
1.50955
2.31313
1.2254
1.26909
0.478081
-1.08988
-7.68995
-16.5205
-23.1453
-26.9883
-28.8008
-29.0058
-28.0646
-26.2845
-23.5499
-20.087
-16.5713
-13.5724
-11.0357
-8.80096
-6.69264
-4.67831
-2.64866
-0.688202
1.13497
2.72987
3.11792
1.45641
1.20938
0.328945
-1.50752
-7.94863
-17.3115
-25.1915
-30.1183
-32.3618
-32.6369
-31.681
-29.7966
-26.732
-22.783
-18.4722
-14.3797
-10.8343
-7.88139
-5.3318
-3.06756
-0.926455
1.02067
2.69807
3.95125
4.00268
2.13795
1.26087
0.263065
-1.83828
-7.75452
-16.9869
-25.5482
-31.3642
-34.1013
-34.5298
-33.5266
-31.5938
-28.7253
-24.9821
-20.6714
-16.1697
-11.8324
-8.00942
-4.76377
-2.04129
0.352785
2.40794
4.03994
5.07802
4.94356
2.44611
1.34946
0.380655
-1.72103
-6.87987
-15.1301
-23.2473
-28.9928
-31.788
-32.2906
-31.3032
-29.3557
-26.6961
-23.4476
-19.7214
-15.6796
-11.5415
-7.61955
-4.12122
-1.13258
1.45338
3.6562
5.35455
6.32054
5.31788
2.39577
3.2128
2.97841
1.89745
0.188049
-1.28011
-2.98368
-5.46834
-8.96565
-13.1389
-17.6487
-21.9069
-25.2087
-27.0686
-27.5619
-26.9498
-25.2767
-22.737
-19.6815
-16.4672
-13.5316
-10.6846
-7.82327
-5.25295
-3.15757
-0.741082
3.13185
2.86412
1.84409
0.117855
-1.57829
-3.35972
-5.82271
-9.3227
-13.6594
-18.4561
-22.8779
-26.1808
-27.9538
-28.3554
-27.6557
-25.8895
-23.1583
-19.8769
-16.4931
-13.4949
-10.6356
-7.6784
-4.85756
-2.61786
-0.396077
3.03073
2.78602
1.72542
-0.0991817
-1.9726
-3.83958
-6.23589
-9.62225
-14.0353
-19.0343
-23.5117
-26.704
-28.4559
-28.916
-28.2666
-26.4436
-23.5585
-20.0992
-16.5619
-13.4871
-10.7877
-7.77946
-4.68771
-2.23256
-0.413953
2.90512
2.58593
1.34663
-0.543937
-2.39716
-4.21846
-6.43619
-9.56653
-13.9348
-19.0775
-23.7641
-27.1536
-29.0102
-29.5152
-28.91
-27.0117
-24.1387
-20.7945
-17.3154
-14.0382
-11.3317
-8.26712
-4.79361
-2.15746
-0.448866
2.75099
2.31116
0.848828
-1.04512
-2.72788
-4.36755
-6.29348
-9.03328
-13.0865
-18.1697
-23.0675
-26.8089
-28.9455
-29.5654
-29.1145
-27.2867
-24.5052
-21.3313
-18.0328
-14.6344
-11.6354
-8.59575
-4.8411
-2.62481
-0.840728
2.59945
2.06162
0.428687
-1.37684
-2.8538
-4.36844
-6.1719
-8.69922
-12.4019
-17.1428
-21.9455
-25.8484
-28.2457
-29.0016
-28.7487
-27.0765
-24.4325
-21.4666
-18.3028
-14.9714
-11.6765
-8.55847
-4.88481
-2.85621
-1.05387
2.48153
1.89197
0.24813
-1.36265
-2.73115
-4.31679
-6.23481
-8.76146
-12.2486
-16.5546
-20.9698
-24.708
-27.1158
-27.9682
-27.7856
-26.2374
-23.8128
-21.0782
-18.0206
-14.7707
-11.3768
-8.16749
-4.68609
-2.8332
-1.11791
2.40765
1.81416
0.301237
-1.12004
-2.56817
-4.47593
-6.67506
-9.31882
-12.6549
-16.5394
-20.4646
-23.8404
-26.0314
-26.81
-26.539
-25.0231
-22.774
-20.2063
-17.2741
-14.0487
-10.6341
-7.59543
-4.52995
-2.84966
-0.960805
2.37041
1.77783
0.452636
-0.893193
-2.6235
-5.10218
-7.69321
-10.4354
-13.5552
-17.0084
-20.4089
-23.2977
-25.1447
-25.7255
-25.2805
-23.7239
-21.5349
-19.0527
-16.2107
-12.9895
-9.39205
-6.58997
-4.60522
-2.98767
-0.87699
2.35113
1.73991
0.593534
-0.784364
-3.14703
-6.41071
-9.42035
-12.147
-14.9511
-17.9124
-20.7421
-23.079
-24.4979
-24.7951
-24.1269
-22.4778
-20.2684
-17.8279
-15.0406
-11.7838
-7.87477
-4.96959
-4.27106
-3.47148
-2.41452
2.33914
1.69093
0.703749
-0.867918
-4.24973
-8.4424
-11.8491
-14.4888
-16.9037
-19.2949
-21.5064
-23.2636
-24.2116
-24.176
-23.2568
-21.473
-19.1996
-16.7443
-13.9909
-10.7446
-6.64162
-3.18458
-3.54299
-4.11579
-1.55139
2.32924
1.64762
0.766477
-1.19524
-5.97398
-11.1439
-14.8679
-17.3995
-19.4106
-21.2102
-22.7937
-23.9754
-24.4508
-24.0606
-22.8775
-20.9405
-18.5703
-16.054
-13.3135
-10.1001
-6.07008
-2.27307
-2.95302
-4.9476
-2.09652
2.32203
1.62018
0.778878
-1.92453
-8.29553
-14.3215
-18.2019
-20.5985
-22.2766
-23.5734
-24.6098
-25.2935
-25.3571
-24.6417
-23.2043
-21.0907
-18.5947
-15.9888
-13.1924
-9.95112
-5.89392
-2.25658
-3.004
-4.62581
-2.27468
2.31712
1.6199
0.743977
-3.11304
-11.0628
-17.6987
-21.5161
-23.7225
-25.1461
-26.0551
-26.6839
-27.0225
-26.8159
-25.8758
-24.2514
-21.9734
-19.3296
-16.5879
-13.6683
-10.407
-6.33389
-2.87901
-3.48891
-3.95717
-1.48909
2.32098
1.65899
0.645191
-4.66111
-13.9859
-20.9328
-24.5243
-26.5026
-27.7025
-28.2366
-28.507
-28.6219
-28.3113
-27.3071
-25.6321
-23.2954
-20.5439
-17.6598
-14.6015
-11.3295
-7.43405
-3.82203
-3.77805
-3.37095
-0.795441
2.32022
1.77392
0.485857
-6.38521
-16.7632
-23.7594
-27.1112
-28.9424
-29.8803
-29.9408
-29.7192
-29.5239
-29.1219
-28.1431
-26.5549
-24.312
-21.5928
-18.6542
-15.5271
-12.235
-8.57348
-4.75431
-3.59149
-2.95162
-0.450783
2.30382
1.97453
0.290545
-8.077
-19.1654
-26.0706
-29.247
-30.8285
-31.3653
-30.8775
-30.1242
-29.5732
-29.0099
-28.0313
-26.5737
-24.5283
-21.9751
-19.1025
-16.0035
-12.7357
-9.28318
-5.47692
-3.64749
-2.47659
-0.505659
2.25318
2.21216
0.0684624
-9.57422
-21.1091
-27.9178
-30.8703
-32.1583
-32.2517
-31.1907
-29.8387
-28.8068
-27.9767
-26.9637
-25.6365
-23.8196
-21.5046
-18.7836
-15.7814
-12.5616
-9.32575
-5.78691
-3.62584
-2.43711
-0.928334
2.1662
2.41862
-0.18528
-10.8051
-22.6291
-29.37
-32.196
-33.1945
-32.7275
-31.0151
-29.124
-27.5396
-26.2531
-25.0676
-23.8375
-22.2585
-20.2215
-17.6968
-14.8434
-11.7067
-8.67516
-5.50587
-3.13024
-1.70946
-0.486517
2.04163
2.51858
-0.497888
-11.7669
-23.823
-30.6589
-33.5391
-34.2634
-33.2492
-31.1347
-28.9235
-26.6672
-24.6313
-22.934
-21.5384
-20.0798
-18.2602
-15.9363
-13.2503
-10.2569
-7.3548
-4.53356
-2.05483
-0.431277
0.495035
1.90069
2.43893
-0.815397
-12.4174
-24.737
-31.9684
-35.0748
-35.6802
-34.407
-32.2874
-29.9702
-27.0596
-24.0162
-21.4295
-19.4529
-17.8113
-16.0376
-13.823
-11.2596
-8.41431
-5.58142
-3.01991
-0.759648
0.748432
1.39209
1.76504
2.16145
-1.02482
-12.4449
-25.0847
-33.1594
-36.8345
-37.5921
-36.3684
-34.3871
-31.9662
-28.7293
-25.0186
-21.4769
-18.5725
-16.2578
-14.1604
-11.8137
-9.22842
-6.41982
-3.64959
-1.25814
0.598325
1.84005
1.81515
1.66654
1.7546
-1.06485
-11.2727
-23.9535
-33.3155
-38.1012
-39.2844
-38.2364
-36.3203
-33.7548
-30.4511
-26.7983
-22.9879
-19.3808
-16.1567
-13.2383
-10.3521
-7.47334
-4.54843
-1.76292
0.549637
2.00911
2.79115
2.22224
1.62571
1.29551
-1.12671
-9.50989
-21.4409
-31.4368
-37.2004
-39.0044
-38.2454
-36.2234
-33.5407
-30.4777
-27.2907
-24.0091
-20.6147
-17.1246
-13.5848
-9.98469
-6.51999
-3.23387
-0.262402
2.08295
3.39933
3.76542
2.22833
1.69147
1.04661
-1.15405
-8.11116
-18.7437
-28.2679
-34.0886
-36.1719
-35.6986
-33.8037
-31.3081
-28.5698
-25.7546
-22.8705
-19.8773
-16.695
-13.2606
-9.56046
-5.84453
-2.30389
0.89828
3.35302
4.74878
4.72559
2.20907
3.1966
3.03819
2.09349
0.437793
-1.42858
-3.6075
-6.91593
-11.7167
-17.6893
-23.8271
-28.9679
-32.3584
-33.8663
-33.8136
-32.5594
-30.4131
-27.4423
-23.5102
-18.9992
-14.8047
-10.9157
-7.47794
-4.22579
-1.19873
0.0182897
3.14863
2.95898
2.03086
0.407162
-1.61201
-3.99405
-7.35289
-12.373
-18.8565
-25.5245
-30.8518
-34.0799
-35.2979
-35.0205
-33.6174
-31.3863
-28.2301
-23.8713
-19.0126
-14.65
-10.6906
-6.96377
-3.45282
-1.43786
-0.451656
3.09095
2.90996
2.00476
0.369908
-1.81682
-4.42475
-7.87096
-13.1445
-20.1954
-27.2938
-32.6527
-35.6664
-36.6313
-36.1698
-34.6889
-32.4266
-29.1653
-24.6331
-19.4945
-14.9828
-10.9171
-6.78092
-3.14819
-1.55645
-0.806727
3.0203
2.80796
1.80695
0.151888
-2.0089
-4.57521
-7.8947
-13.159
-20.5977
-28.1658
-33.7877
-36.9222
-37.881
-37.3532
-35.8369
-33.5248
-30.2632
-25.8431
-20.7103
-15.953
-11.6927
-7.33588
-3.60209
-1.68843
-0.764048
2.93474
2.66861
1.51299
-0.106823
-2.08378
-4.43232
-7.39226
-12.1883
-19.4626
-27.3305
-33.4747
-37.1479
-38.4668
-38.1445
-36.7054
-34.336
-31.0778
-26.7316
-21.6908
-16.7503
-12.2752
-7.89231
-4.26596
-2.45778
-1.56943
2.85389
2.54132
1.2767
-0.23378
-2.04635
-4.35322
-7.1987
-11.5369
-18.1884
-25.8282
-32.2556
-36.447
-38.2752
-38.2362
-36.9532
-34.6382
-31.3958
-27.2664
-22.3606
-17.3303
-12.5586
-8.06982
-4.95752
-3.06331
-2.08154
2.79777
2.45617
1.24152
-0.105982
-1.94901
-4.53458
-7.61589
-11.8103
-17.7854
-24.7365
-30.9117
-35.2214
-37.3746
-37.6003
-36.5118
-34.3049
-31.1781
-27.2153
-22.4772
-17.3605
-12.3404
-7.71291
-5.37652
-3.88277
-2.44444
2.76253
2.40922
1.36123
0.0891537
-2.08993
-5.28007
-8.80294
-13.0179
-18.4001
-24.5044
-30.0442
-34.0731
-36.2003
-36.4929
-35.5043
-33.3503
-30.314
-26.5154
-21.9515
-16.8516
-11.6864
-7.30104
-5.63167
-4.73731
-2.58738
2.74076
2.37587
1.5161
0.134027
-2.76614
-6.85653
-10.877
-15.0181
-19.7889
-24.9983
-29.7287
-33.2264