/*--------------------------------*- C++ -*----------------------------------*\
  =========                 |
  \\      /  F ield         | OpenFOAM: The Open Source CFD Toolbox
   \\    /   O peration     | Website:  https://openfoam.org
    \\  /    A nd           | Version:  11
     \\/     M anipulation  |
\*---------------------------------------------------------------------------*/
FoamFile
{
    format      ascii;
    class       surfaceScalarField;
    location    "40";
    object      phi;
}
// * * * * * * * * * * * * * * * * * * * * * * * * * * * * * * * * * * * * * //

dimensions      [0 3 -1 0 0 0 0];

internalField   nonuniform List<scalar> 
49858
(
3123.64
-114.925
1326.75
5179.83
931.574
1588.02
5925.01
1127.63
1011.65
7281.44
375.093
498.163
8360.23
795.543
334.944
8724.69
1588.08
401.722
8630.58
2189.68
484.917
7455.63
3141.23
841.872
5686.36
4789.18
126.952
3354.65
3120.16
1385.64
4160.78
-803.138
1636.64
7049.04
-3515.57
1974.43
10342.2
-4887.38
2491.03
13171.1
-5312.18
3046.6
15251.8
-5226.45
3485
16662.5
-4835.2
3752.16
17669.4
-4341.07
3875.71
18337.4
-3827.04
3892.82
18591.2
-3362.53
3819.45
18407.8
-2925.48
3686.54
17830.4
-2516.94
3509.41
16974.4
-2167.61
3273.22
16051.4
-1915.2
2934.19
15919
-2219.93
2312.96
-2827.46
1289.02
3670.31
-704.881
1120.26
5864.65
1344.4
1296.47
6777.86
1076.24
2498.41
8844.43
-985.305
1798.16
10459.5
200.046
1238.31
10494.7
2408.99
1453.82
8638.91
3592.36
2888.06
5752.91
2522.35
5504.56
6041.48
180.088
6375.89
8488.77
-2543.05
4641.4
12337.2
-4093.94
774.478
16726.4
-4761.16
-2085.15
21026.6
-4836.07
-3532.75
24753.3
-4519.82
-3966.22
27752.7
-3986.47
-3841.27
30092.9
-3343.28
-3470.48
31989.1
-2698.59
-3003.84
33536.9
-2169.78
-2551.34
34746.1
-1769.87
-2170.55
35629.2
-1442.35
-1868.15
36211.9
-1138.48
-1617.26
36616.9
-931.984
-1449.9
37108
-920.961
-1416.27
37513.3
-1154.54
-1507.46
-1822.82
-1404.48
3435.32
-861.621
907.026
6669.48
243.087
1082.1
8411.44
647.992
1834.32
8231.68
279.214
2013.31
8292.46
1673.76
1593.67
7739.76
4463.08
1277.64
5951.42
4687.19
2891.62
4702.36
379.6
5200.53
5527.46
-4652.32
5731.09
7848.48
-6488.67
2988.3
11170.5
-5010.37
-1323.02
15232.7
-3671.76
-4220.48
19260.5
-2585.89
-5620.15
22745.8
-1628.42
-5925.28
25504.3
-842.863
-5604.87
27642.3
-185.95
-4996.4
29394.9
317.942
-4307.04
30856.6
658.507
-3667.61
32001.1
850.265
-3154
32853.8
968.459
-2764.21
33465.4
1063.94
-2465.18
33932.3
1074.63
-2265.96
34443.4
881.437
-2223.2
35089.6
454.592
-2263.92
-287.881
-2099.95
3262.05
-792.201
777.213
6731.13
-441.975
561.398
7775.01
921.444
1941.39
6881.95
2880.19
2184.42
5892.21
5416.66
1263.04
4984.93
4895.89
3048.85
4931.53
1521.53
4815.8
5479.7
-4885.76
6009.08
6449.12
-9768.47
5649.36
9436.05
-10981.7
3045.77
12797.2
-5822.52
-1386.4
16516.5
-1842.99
-4621.99
20059
860.707
-6285.76
23086.4
2600.74
-6736.15
25502.5
3637.7
-6483.56
27419.7
4217.08
-5919.93
29057.1
4487.97
-5268.7
30476.3
4568.38
-4649
31611.1
4501.27
-4129.72
32472.2
4363.74
-3714.33
33110.7
4187.63
-3379.21
33582.6
3963.64
-3121.44
33994.8
3591.36
-3009.59
34407.3
3027.9
-2985.38
2017.12
-2614.29
2912.04
-429.173
930.103
6231.48
-893.025
217.062
7269.35
1388.88
2050.86
6839.38
4723.34
2215.03
5915.48
7224.48
2596.11
4950.58
1915.25
5872.32
5408.39
-3181.61
5579.09
6234.9
-10224
5492.18
6575.96
-13691.6
4780.03
9153.05
-16175.4
3785.25
12916.6
-10666.5
1874.49
16501.5
-3996.89
-848.572
19867
751.936
-2787.78
22768.3
3856.81
-3805.43
25129.4
5723.98
-4159.76
27026.2
6712.7
-4132.57
28655.3
7168.92
-3904.38
30067.6
7294.38
-3599.83
31204.6
7205.84
-3298.37
32066.3
6987.37
-3036.35
32693.8
6694.16
-2815.12
33127.3
6357.57
-2634.95
33448.3
5894.91
-2540.31
33672.4
5296.02
-2508.06
4190.9
-2048.39
2415.53
-75.6942
1278.84
6069.49
-1301.89
309.742
6454.55
3982.16
1230.35
4999.39
4719.46
4337.62
5052.99
3725.49
5970.05
5275.34
-3009.63
6265.98
6133.17
-8143.81
5337.59
6658.02
-13973.6
4142.97
6751.3
-16653.8
3838.31
8148.24
-18907
2561.4
12194.6
-16189.1
2535.6
15984.8
-8947.9
1983.16
19247.3
-2838.5
938.072
22035.7
1501.14
46.4096
24323.5
4356.23
-532.238
26177.3
6084.32
-861.837
27769
7066.15
-1019.7
29156.6
7551.68
-1071.71
30291.4
7715.97
-1077.42
31161.6
7658.08
-1077.66
31792.4
7476.07
-1082.09
32235.1
7207.95
-1094.71
32580.6
6770.15
-1131.46
32753.2
6287.23
-1175.46
5522.57
-732.642
2196.73
398.138
1511.84
5877.23
-1945.31
271.484
5402.49
5078.5
2530.42
4017.29
1695.5
6527.39
4845.32
-2125.52
6886.78
5805.37
-7966.82
5436
7173.33
-12724.2
4261.87
7662.84
-16714.3
3042.79
7975.29
-19266.1
2933.72
8114.05
-20883.2
2501.57
10547.2
-20325
2306.64
14691.6
-15343.2
2709.84
18209.3
-8490.65
2502.31
21142.8
-3086.15
2010.21
23494.8
783.773
1534.26
25365.1
3365.93
1150.16
26947.6
5013.71
862.543
28327.1
6007.97
662.79
29474.9
6539.75
512.17
30390.8
6749.34
382.591
31100
6768.2
256.345
31630
6663.81
150.403
31967.7
6393.71
81.3227
31848.1
6272.16
92.068
6025.26
501.985
2078.59
728.07
1562.27
5763.48
-1158.3
-410.976
4792.11
4226.73
4072.56
3840.98
-2955.38
7379.47
4954.42
-7076.06
5471.52
6483.93
-12226.4
4087.79
8156.18
-16097.9
2803.12
9424.69
-18842.5
1816.66
10010.9
-20574.5
1548.17
9841.36
-21967.6
2036.74
10189.8
-21928.8
2037.19
12778.6
-19569.6
2450.28
16359.1
-14391.9
3064.61
19314.8
-8702.43
3294.21
21732.8
-4220.72
3122.85
23690.5
-895.905
2764.48
25351.7
1465.17
2384.44
26776.3
3091.29
2047.75
27931.4
4132.86
1759.65
28814
4747.69
1518.51
29439.8
5084.68
1308.35
29831.1
5273.42
1128.17
30074.2
5192.88
988.488
29859.8
5456.59
978.226
5660.96
1283.72
1897.12
1450.24
1606.2
6290.48
1307.13
-2303.62
4823.5
2147.32
5333.5
3551.17
-7494.74
7302.36
4863.03
-10899.9
3973.27
6685.9
-15320
2419.92
8817.18
-19125.6
1843.35
11525.5
-21154
332.865
13316
-21528.4
-246.251
13467.3
-21991.4
288.657
12755.8
-22132
1191.69
12896
-21124.4
1728.96
14663.7
-18305.9
2519.72
17143.2
-13954.5
3189.74
19378.2
-9537.48
3497.21
21271.7
-5864.9
3453.59
22916.2
-2970.68
3229.72
24336.5
-767.309
2934.01
25487.3
826.355
2615.66
26343.2
1920.75
2309.53
26916.8
2680.64
2025.9
27250.7
3251.81
1762.66
27464.2
3429.58
1539.72
27342.5
4049.59
1449.99
4505.99
1672.95
2011.02
2015.92
1571.75
7601.83
4321.14
-3686.31
4867.84
-188.412
6661.32
3400.11
-10746.5
6223.68
4775.51
-13243.7
2387.47
6529.73
-17454.8
1553.14
9077.39
-21360.5
751.884
12604.3
-22960.2
-781.071
16151.1
-22385
-1845.48
17837.8
-21052.6
-1957.4
17241.5
-20042.9
-977.761
15780.5
-19358.8
224.97
14944.7
-17947.3
1145.2
15477.9
-15721
2060.74
16811.3
-12776.4
2722.2
18312.5
-9700.88
3058.63
19781.1
-6895.46
3146.61
21132
-4546.29
3086.15
22254.2
-2651.19
2918.84
23104.9
-1218.18
2684.75
23687.6
-97.2009
2431.53
24056.1
819.322
2161.12
24281
1301.91
1907.04
24366
2163.31
1714.67
2746.88
1893.67
2793.76
1959.64
1384.2
7721.07
4550.59
-1331.57
4392.73
-2830.98
7448.54
3421.14
-12934.4
4654.69
4744.12
-14186
870
6580.39
-19332.2
1060.19
9588.17
-22965.8
-575.893
13330.6
-23929.1
-2021.82
17287.6
-22834.2
-2920.78
20482.2
-20618.4
-3240.13
21841.4
-18254.6
-2983.11
21191.7
-16445
-2164.61
19335.5
-14864.2
-1028.82
17460
-13386
-29.2949
16296.9
-11958.3
943.452
15934.2
-10440.7
1715.11
16288
-8835.08
2217.72
17070.1
-7162.49
2496.27
17931.5
-5553.16
2579.12
18693.3
-4125.75
2523.27
19277.6
-2900.05
2382.73
19735
-1799.28
2188.76
20064.6
-1082.63
1975.83
20457.6
-130.576
1745.45
738.264
1996.02
2754.48
1933.75
1248.44
6888.55
3675.69
38.7395
3526.12
-5267.65
7224.4
3117.6
-15429.9
4407.86
4467.55
-15173.9
910.993
6798.24
-20689.5
115.188
10507.8
-23504.1
-2149.78
14526.1
-23531.1
-3444.11
18234.7
-21794.2
-3901.47
21193.3
-18996.7
-3903.83
23156.3
-16288.9
-3459.75
24180.2
-13864.3
-3211.21
24267.4
-11623.7
-2873.14
23304.4
-9663.93
-2139.57
21422.8
-8087.47
-1227.14
19085.9
-7041.9
-253.079
16852.2
-6450.91
688.093
15223.8
-6110.36
1389.05
14297.5
-5753.28
1810.81
13903.8
-5245.09
1992.92
13863
-4612.58
2016.14
14091.7
-3864.29
1928.57
14399.8
-3227.99
1795.63
15176.6
-2670.17
1602.75
-1285.87
2033.99
2363
2371.85
1169.5
5653.13
2005.67
982.14
2756.58
-7526.66
6573.43
2725.94
-18263
4274.43
4144.83
-16611.1
1156.43
7256.24
-21426.1
-1470.08
11634.7
-23046.8
-3965.96
15939.3
-22238.9
-4843.89
19633.9
-20010.3
-4771.89
22257
-17027.2
-4118.94
23885.2
-14124.7
-3599.01
24892.2
-11165.4
-3628.7
25570.2
-8515.49
-3699.07
26114
-6532.47
-3463.39
26052.9
-4900.56
-2820.31
24930.2
-3679.17
-1866.09
22726.5
-2950.83
-837.911
19805.7
-2771.32
79.0159
16683.4
-2956.51
783.53
13813
-3296.64
1229.71
11578.7
-3696.51
1440.11
10209.8
-4037.18
1485.4
9409.95
-4057.69
1426.23
9728.72
-4660.11
1332.15
-2969.86
2009.28
1612.15
2269.03
2361.79
4381.54
165.31
1406.01
2415.14
-9239.24
5123.92
2421.63
-20085.2
3266.69
3966.2
-17439.1
407.003
7904.24
-20843.8
-3505.67
12826.8
-21174.9
-5808.54
17320.6
-19728.4
-6044.64
20886.1
-17390.4
-5287.01
23186.7
-14679.1
-3903.56
24667.7
-11517.4
-3555
25632.5
-7911.15
-3831.58
26418.6
-4981.54
-3977.73
27187
-3058.99
-3865.93
27810.9
-1673
-3457.86
28005.6
-638.131
-2830.76
27426.3
64.8987
-2027.67
25839.6
348.721
-1141.36
23363.3
183.966
-340.715
20288.3
-286.888
279.413
16964.2
-1002.93
705.955
13773.2
-1839.27
949.07
10769.9
-2223.2
1012.88
8387.22
-3503.53
967.859
-2657.22
1914.33
878.58
1555.26
3699.77
4363.9
-1054.92
-21.6844
3366.73
-8297.1
1682.62
2288.04
-18566.8
1036.4
3952.18
-16937.4
-1121.73
8622.98
-18844.4
-5703.88
13988.8
-18194.1
-7476.7
18638.8
-16550.1
-6974.61
22024.9
-14580
-5396.92
24064.3
-12500
-3616.46
25487.4
-9471.14
-3178.61
26457.9
-5468.96
-3286.29
27302.3
-2357.44
-3376.43
28031
-257.608
-3415.01
28687.9
1127.18
-3290.98
29222.2
2005.8
-2992.58
29488.1
2528.42
-2533.31
29238
2724.49
-1928.13
28248.8
2582.33
-1260.13
26527.6
2159.27
-654.885
24196.8
1442.02
-155.19
21315
656.752
264.212
18032
285.063
565.383
13937.7
-461.304
784.055
-570.339
1766.56
1251.24
364.501
3803.09
6719.23
-1688.47
-2554.27
5656.19
-3659.03
-1941.42
1977.14
-14190.3
973.584
3859.41
-14731.2
-3031.96
9130.76
-15286.8
-7819.09
14910.5
-14189.5
-8850.59
19750.3
-12858.5
-7592.08
23031.4
-11744.9
-5251.63
24948
-10473.2
-3176.17
26307.1
-7994.64
-2297.49
27228.1
-4055.5
-1961.25
27943
-746.576
-2037.81
28542.3
1641.96
-2231.19
29066
3199.06
-2350.22
29546.8
4089.16
-2342.82
29972.2
4495.23
-2204.91
30233.3
4524.95
-1928.15
30157.2
4274.96
-1541.66
29588.5
3844.57
-1128.24
28497.5
3176.58
-731.065
26784.3
2513.73
-303.476
24487.7
2304.68
85.2497
21359
1948.7
514.016
1855.36
1382.77
3133.9
-1153.97
2249.48
8912.42
-2925.23
-2919.23
7858.01
-1169.65
-24.7003
1490.3
-6458.44
483.327
3197.24
-9509.24
-5616.66
9124.61
-10206.7
-9924.06
15463.9
-9571.54
-10013.4
20619.2
-9171.8
-7978.24
23998
-9236.82
-5053.22
25788.3
-9067.36
-2524.46
26982.5
-7754.25
-1075.12
27872.8
-4442.7
-314.704
28494.7
-990.986
-258.746
28967.7
1813.5
-521.584
29342.5
3769.44
-825.632
29677.8
4930.69
-1058.38
30008.3
5457.86
-1195.35
30302.5
5505.42
-1210.69
30467.1
5239.33
-1112.45
30391.1
4827.37
-953.729
29973.7
4229.32
-754.32
29152.8
3630.56
-467.507
27836
3541.99
-128.821
25813.3
3505.77
263.404
4186.42
1202.25
2878.35
-1005.46
796.858
7934.95
-5414.41
-823.651
8089.12
-3506.7
3563.06
578.257
3493.64
-671.364
1043.45
457.96
-9094.5
8145.73
-3946.25
-12290.6
15548.4
-4920.72
-11155.4
21249.8
-5710.87
-8326.01
24700.6
-6910.52
-4996.21
25867.6
-8019.34
-1568.59
26237.9
-7979.04
292.068
26804.8
-5978.45
1300.9
27465.8
-2940.34
1559.17
28093
77.3748
1338.16
28626.8
2462.59
963.428
29063.7
4050.86
591.842
29397.9
4936.29
270.071
29630.3
5260.13
33.2906
29771
5165.08
-116.832
29828.2
4870.06
-213.231
29710.3
4417.83
-254.935
29348.4
3934.28
-174.582
28796.6
3852.03
-15.8748
27861.6
3901.11
300.725
5235.38
1019.75
2105.94
-609.976
1326.48
7289.62
-7359.44
-1499.24
5710.26
-5616.58
4663.94
-377.387
8555.48
2179.22
717.109
10183.9
-9793.4
7555.3
3837.27
-13634.3
15312.3
353.093
-12201.4
21612.1
-2126.11
-9050.56
25385.7
-4427
-5529.16
26383.8
-6671.84
-1759.69
25803.9
-7688.67
630.932
25153.5
-7109.4
2021.42
24978.5
-5293.2
2702.73
25227.7
-2858.87
2837.38
25653.5
-438.347
2602.44
26145.8
1437.86
2226.66
26599.9
2730.02
1818.91
26967.6
3462.55
1433.06
27265
3732.32
1097.64
27526.4
3701.49
798.274
27720.2
3516.49
551.535
27793.7
3227.13
416.384
27833.6
3195.21
397.277
27660.4
3373.62
503.239
4694.84
1040.9
3401.25
-723.939
611.537
5539.18
-8743.32
604.623
3472.46
-8653.45
6654.77
-702.033
8968.69
4847.51
2254.97
16133.3
-8007.93
8152.38
11845.9
-13053.1
15000.4
6886.15
-12579.7
21408
2437.23
-10167.3
25963.9
-1385.83
-6880.96
27931.4
-4410.91
-3645.11
27661.3
-6306.89
-742.701
26203.3
-6648.21
1294.25
24452.7
-5800.93
2509.95
23068.5
-4360.88
3128.04
22266.6
-2749.79
3327.11
21985.6
-1316.86
3206.34
22039.2
-141.077
2905.19
22281.3
702.958
2522.15
22621.6
1204.75
2113.67
23048.3
1420.69
1710.8
23547.3
1470.57
1336.91
24067.1
1400.77
1048.4
24615.4
1480.62
887.349
25217
1634.92
884.479
2755.11
1270.52
4328
-1320.21
120.001
4745.08
-9756.67
1765.29
3776.61
-13433.2
7206.97
-435.313
6822.72
7220.61
3138.3
18865.1
-5658.68
9012.18
18405.7
-11842
15382.2
13865.9
-12729.3
21290.9
8519.26
-11328.4
26157.4
3602.47
-9205.63
29449.2
-256.692
-6923.63
30942.7
-3031.87
-4431.98
30592.1
-4411.99
-1652.33
28949.7
-4445.31
469.651
26603.7
-3650.23
1808.25
24027.9
-2579.97
2571.1
21725.8
-1736.03
2867.28
19989.7
-1191.48
2862.3
18874.2
-831.627
2654.88
18294.1
-617.197
2330.07
18159.7
-529.26
1953.63
18402
-548.557
1574.57
18940.9
-628.828
1248.24
19694.5
-574.594
1049.75
20760.3
-698.762
1042.68
193.806
1434.15
4866.53
-2365.82
136.421
6349.16
-10466.4
1070.05
5746.91
-16100.4
5783.89
70.5385
2767.62
11130
3524.81
17840.8
-1363.89
9702.58
22264.4
-9145.05
16303.6
20148.9
-12087.1
22094.1
15683.9
-12176
26716.2
10894
-11179.1
30169.2
6779.06
-9871.84
32525.2
3546.1
-8493.71
33835.7
1020.27
-6413.36
34023.6
-523.803
-3853.05
33139.3
-969.762
-1563.92
31451.5
-730.975
50.52
29252.8
-363.407
995.11
26875.8
-152.185
1432.91
24681.4
-134.968
1501.21
22896.8
-236.194
1337.63
21610
-429.191
1045
20822.9
-670.886
709.704
20451.8
-920.351
401.088
20354.9
-994.014
224.031
20449.9
-1362.37
288.777
-927.356
869.556
4383.3
-2845.65
292.025
8178.01
-9684.24
-1462.21
6702.19
-14651.9
3969.58
531.481
-3527.05
14371.4
3039.59
11600.5
4996.77
9539.46
19853.5
-3090.19
16731.9
21898.9
-8046.37
23124.8
20132.9
-9972.16
28125.2
16869.1
-10167.2
31712.4
13556.7
-9651.02
34038.6
10675.8
-8955.94
35270.4
8231.19
-8084.35
35643.6
6194.47
-6849.91
35478.8
4637.21
-5252.34
34989.4
3552.27
-3637.09
34270.5
2792.83
-2315.17
33370.3
2199.83
-1399.54
32429.3
1678.72
-884.637
31620.5
1200.72
-703.331
31035.2
771.992
-740.095
30688
386.228
-894.089
30549
79.9618
-1088.31
30602.2
-66.085
-1239.71
30324.9
-148.214
-1183.12
73.1759
-530.157
3123.92
-2195.62
673.259
9193.24
-5331.39
161.788
8337.92
-5369.1
2200.98
516.411
-6464.29
13616.9
627.904
2804.54
10458
6574.32
10330.6
5215.57
14146.6
14575.3
1289.14
21229.8
15264.6
-854.348
27031.2
13881.2
-1611.55
31373.8
11987.4
-1798.65
34427.3
10138.8
-1827.89
36428.8
8444.03
-1763.6
37583.4
6902.12
-1584.57
38120.5
5618.06
-1338.22
38241.8
4651.74
-1097.28
38071.8
3924.7
-896.916
37704.7
3326.9
-766.667
37245.6
2802.27
-743.894
36799.4
2345.69
-835.854
36449.2
1948.87
-1015.64
36226.1
1606.19
-1233.19
36144.7
1323.96
-1442.44
36324.1
1067.85
-1621.91
36616.4
928.899
-1657.27
1009.64
-1140.96
1679.76
1383.85
14708.2
-13095.7
15983.7
-2769.72
1135.29
9333.71
-5282.3
9917.38
-3944.69
9679.58
1761.32
9502.25
8394.94
9166.99
13796.9
8925.74
17594.1
8531.06
20017.3
7950.61
21333.9
7277.52
21769.7
6558.69
21629.2
5816
21226
5086.37
20756.3
4395.71
20318.3
3733.47
20004.1
3059.88
19918.4
2352.16
20145.4
1627.23
20716.4
923.253
21616.2
299.487
22773.6
-218.899
24104.7
-494.14
-175.483
2536.46
785.25
1979.45
5358.03
1473.67
-275.068
9058.06
659.634
-1742.77
11781.9
1207.75
-1866.92
13406
1884.54
-1394.77
14166.7
1478.1
33.6678
12392.6
2095.15
1836.69
8712.79
1294.84
4578.41
6277.4
-2067.6
5601.13
8272.9
-5403.07
5662.1
12496.5
-7649.43
5902.82
17219
-8539.54
6526.09
21439.3
-8435.43
7296
24784.1
-7877.15
7966.51
27258.9
-7127.76
8414.71
29018.1
-6357.12
8628.6
30295.8
-5611.64
8661.5
31173.7
-4940.21
8528.42
31625.1
-4307.15
8248.5
31637.7
-3708.37
7842.11
31229.7
-3133.71
7356.47
30389
-2564.75
6830.08
29242.6
-2098.85
6201.54
27479.6
-1455.81
5464.18
-1744.15
4301.01
3920.87
864.832
1146.48
7872.15
1706.46
-75.6113
10591.2
717.519
1590.42
14087
290.676
839.672
15236.5
1958.77
1531.05
12356.9
3270.63
3987.1
8554.16
2222.75
7761.37
7800.84
-1160.05
9661.12
10534.1
-5409.69
7638.34
15764.8
-8136.15
2788.08
20934.9
-9802.18
-1679.98
25360.1
-10205.2
-4251.57
28801
-9797.11
-5124.75
31277.4
-8969.89
-4959.5
32925.9
-8023.78
-4285.36
33958.5
-7102.47
-3421.42
34621
-6264.63
-2546.63
35056.5
-5506.4
-1789.08
35280.7
-4845.02
-1236.37
35340.8
-4266.59
-866.711
35313.7
-3731.51
-659.474
35224.1
-3155.03
-607.51
35211.1
-2726.25
-754.852
35790.5
-2471.13
-1141.69
-2214.96
-1142.59
4506.95
731.207
569.71
8989.77
790.608
-34.4755
9885.61
971.795
2548.29
10731.6
-33.3022
3218.23
11385.7
1688.53
3038.58
8600.57
3440.02
5340.83
6286.68
-518.221
9063.06
6732.77
-5669.56
10119.7
9840.12
-9095.4
6968
14915.6
-10513.2
795.693
19742.6
-11000
-4429.36
23700.8
-10560.7
-7351.9
26641.4
-9611.48
-8324.72
28635.6
-8510.91
-8052.49
29878.9
-7477.29
-7133.95
30623.9
-6593.81
-5975.44
31154.3
-5853.21
-4801.56
31586.2
-5227.85
-3770.04
31879.7
-4692.54
-2987.66
32022.9
-4215.34
-2458.32
32042.5
-3739.75
-2137.55
31966
-3181.2
-1988.62
31887.9
-2809.15
-2024.54
32192.5
-2822.48
-2280.22
-2462.19
-2128.9
4490.65
581.383
418.486
8350.61
692.21
-316.903
7945.76
1603.59
3494.32
6990.82
-290.146
5086.13
6543.02
1242.34
4289.89
6176.5
549.124
7696.7
6747.09
-4840.03
9558.69
7550.47
-9515.36
9787.74
10077.9
-12121.1
6801.82
14715.1
-12104.6
593.121
19252.6
-11345.8
-4988
22874.2
-10081
-8159.31
25530.3
-8841.35
-9218.44
27413
-7780.99
-8928.22
28732.3
-6931.49
-7982.77
29693.4
-6265.52
-6836.87
30523.3
-5721.9
-5709.03
31277.2
-5264.86
-4711.58
31873.9
-4857.79
-3913.27
32270
-4465.47
-3331.54
32468.5
-4009.04
-2947.88
32521.8
-3451.59
-2715.35
32519.3
-3151.98
-2623.12
32580.1
-3145.73
-2776.55
-2656.83
-2359.5
4161.28
847.414
574.719
7366.75
887.9
-355.667
6296.72
2276.9
4135.59
4720.19
-1670.84
6777.34
5286.22
-1304.05
6572.34
6826.31
-2519.55
8725.6
7823.81
-7660.36
8275.37
8408.11
-11787.1
7848.38
9460.17
-14394.9
6564.34
12406.2
-14495.8
3807.32
16678.5
-13262.1
30.8475
20561.1
-11367.5
-2943.02
23709.9
-9846
-4518.67
26147.4
-8702.7
-4985.38
27989.3
-7851.69
-4787.37
29386.7
-7222.43
-4263.32
30542
-6727.87
-3611.83
31522.3
-6301.28
-2957.57
32271.4
-5915.35
-2403.69
32786.5
-5517.05
-2018.07
33094.2
-5005.73
-1804.47
33234.9
-4388.2
-1676.41
33242.3
-4040.68
-1628.02
33159.3
-3785.2
-1860.04
-2946.97
-1330.38
4150.62
1206.02
735.138
6592.39
965.201
391.995
5244.97
2200.65
4259.33
4107.9
-3017.2
8271.06
5833.33
-4290.26
8998.36
7930.21
-4739.94
7727.44
8991.97
-8678.64
6193.15
9756.74
-12354.8
4635.55
10817.9
-14810.3
3777.38
11949.2
-15935.9
3454.09
14412.5
-15333.4
2800.75
17580.3
-14044.7
2114.53
20520.9
-12633.9
1342.32
23000.8
-11467.8
833.633
25001.7
-10545.4
598.349
26588.9
-9799.53
559.826
27928.2
-9171.57
640.529
29077.9
-8601.04
758.118
29992.2
-8067.84
823.146
30684
-7509.74
760.3
31180.5
-6810.49
580.736
31489.7
-6006.87
391.867
31631.6
-5424.56
135.087
31727.7
-4718.92
-392.731
-3320.87
89.1805
4373.3
1588.34
712.267
5872.07
1071.53
747.919
5248.85
1647.02
5149.88
5331.92
-4187.19
8959.21
7159.92
-6077.56
8512.9
8986.98
-5822.14
6036.87
9875.08
-8069.76
3689.52
11176.5
-11597.2
1628.56
13048.5
-14179
904.211
14699.6
-15435.6
753.184
16193.7
-15471.7
1379.18
17980.8
-14802.7
2137.58
19897.5
-14157
2562.86
21730
-13585.7
2731.48
23314.3
-12994.2
2798.73
24608.8
-12359.9
2806.84
25745.5
-11694.5
2768.17
26774
-11001.9
2679.77
27639.3
-10290.3
2496.04
28323.7
-9501.92
2182.08
28804.4
-8525.07
1796.44
29113.2
-7486.45
1445.87
29482.7
-6700.46
983.295
30150.2
-5745.22
356.225
-3695.96
961.495
4520.97
1868.29
624.983
5396.27
1634.67
245.888
5999.31
803.868
5610.39
7276.2
-5307.48
8593.22
8735.45
-6655.95
6355.45
9798
-5477.49
4119.16
10558.8
-7012.22
2038.39
12173.3
-10104.1
-478.39
14581.3
-12861.6
-1522.26
17044.3
-14041.2
-1242.85
18849.7
-14105.7
-617.536
20371.2
-13545.8
191.477
21916.9
-13116.1
999.312
23427.4
-12926.4
1637.44
24771.2
-12800.9
2068.54
25932.4
-12594.3
2315.53
27011.3
-12244.8
2425.84
28034.3
-11745.4
2427.06
28964
-11125.9
2291.22
29789.7
-10354.3
2026.42
30448.2
-9323.09
1739.05
30973.9
-8226.45
1458.96
31532.1
-7303.44
1019.4
32202.4
-6152.85
639.02
-3826.56
1426.49
4761.14
2048.37
568.283
5344.96
1508.31
-759.369
7153.99
-260.941
5838.05
8890.47
-5418.16
7171.35
9546.93
-6447.9
4813.93
9934.93
-5134.87
3091.36
11046.5
-7157.12
1832.55
13108.4
-9882.5
-1216.7
15714.4
-11856.8
-3286.36
18311
-12292.6
-3635.6
20372.9
-11855.5
-2816.53
21960.5
-11209.2
-1913.65
23440.5
-10560
-1200.44
24967.6
-10326.9
-565.729
26394.1
-10342.4
-5.34602
27647.1
-10456.1
451.519
28808.9
-10494.9
785.815
29900.1
-10367
1014.33
30873.3
-10079.1
1112.78
31700
-9582.11
1096.75
32314.3
-8761.06
1061.35
32776.7
-7841.3
973.697
33262.4
-7004.37
710.937
33721.1
-5931.08
665.603
-3643.07
1575.47
5147.01
1789.69
520.251
5861.33
162.695
-941.137
8628.3
-1135.85
5941.19
10556.5
-5055.52
5605.6
9964.92
-5396.12
3630.16
9967.19
-5184.67
2901.08
11868.7
-7965.6
677.478
14588.7
-10170
-2330.51
17127.5
-10918.5
-4552.39
19340.8
-10589.3
-5217.83
21255.2
-9318.54
-4933.75
22842.9
-7729.89
-4400.07
24216.4
-6545.51
-3792.85
25560.2
-6033.78
-3093.92
26845.8
-6025.6
-2390.24
28022.4
-6352.32
-1748.11
29145.7
-6759.35
-1194.58
30213.9
-7070.52
-714.474
31156.2
-7249.41
-349.035
31932.7
-7217.16
-91.8505
32504.1
-6839.33
132.587
32943.8
-6281.19
221.856
33373.6
-5705.26
132.616
33715.2
-4912.64
251.864
-2866.91
1380.19
5020.91
1532.51
503.531
6141.77
310.483
-609.568
9326.17
-1517.02
5855.48
11358.9
-5297.31
4538.14
10059.1
-3699.04
2079.84
10387.2
-5544.39
2152.21
13184.4
-8982.94
-1466.74
16537.2
-10526.4
-4236.45
19263.7
-10181.6
-5754.89
21008.6
-8656.48
-6464.63
22230
-6223.51
-7014.6
23675.2
-4162.67
-6952.63
25206.9
-2535.42
-6326.57
26498.3
-1540.54
-5504.3
27539.4
-1177.21
-4595.36
28402.5
-1433.96
-3704.31
29214
-2054.8
-2881.44
29992.8
-2738.61
-2156.3
30679.3
-3361.58
-1585.59
31231
-3819.78
-1141.3
31611.5
-3962.9
-736.316
31876.7
-3833.83
-513.913
32180
-3633.57
-481.058
32361
-3205.47
-271.538
-1556.94
1001.98
4765.61
1284.54
553.746
6287.05
1504.46
-598.417
8539.01
-717.96
5306.18
9669.92
-5909.64
5506
9240.08
-3983.36
2982.67
11205.7
-6574.23
164.865
14866.4
-9674.39
-4177.24
18533.1
-10449
-6315.34
21455.6
-9283.33
-6879.43
23398.6
-6167.49
-7691.73
24578.8
-2284.3
-8181.63
25442.8
334.13
-8261.22
26386.1
1930.36
-7965.72
27569.5
2822.32
-7313.68
28698.9
3260.61
-6408.54
29502.6
3300.86
-5401.14
30012.4
2910.88
-4372.92
30297
2187.87
-3400.4
30396.2
1293.56
-2574.39
30333.8
392.984
-1898.66
30152.7
-327.648
-1310.18
29910.8
-710.185
-938.544
29770.7
-991.66
-780.945
29605.2
-1088.18
-478.151
-158.471
955.261
4612.76
1041.62
643.792
6730.01
2936.98
-642.318
8427.26
711.273
4589.77
8949.92
-5881.04
5244.63
9365.81
-4550.56
2406.09
12748.3
-7259.67
-3294.03
16925
-9614.7
-7358.31
20600.3
-9811.48
-8325.51
23472.1
-8281.65
-7937.42
25312.5
-3516.38
-8154.41
26655.5
1308.97
-8305.41
27556.7
4502.06
-8544.69
28187.4
6296.39
-8535.86
28762.5
7161.45
-8175.33
29474.9
7459.86
-7497.21
30274.5
7467.26
-6583.78
30925.9
7255.77
-5556.78
31237.5
6753.31
-4503.7
31134
5954.53
-3515.25
30606.1
4968.36
-2640.92
29755.9
3887.74
-1857.7
28756.9
3041.77
-1298.45
27756.2
2310.22
-988.433
26803.9
1598.66
-555.569
1546.3
936.052
4681.15
1135.75
1382.45
7591.27
4144.11
-812.469
9309.62
2251.09
3053.37
9349.81
-4529.04
3479.23
10365.1
-4051.16
-209.946
14573.8
-6924.56
-7223.72
18903.8
-8567.26
-10338.9
22400.8
-8546.42
-9920.43
25048.2
-6780.82
-8568.91
26738
-1012.76
-7530.67
28014.2
4234.9
-7425.74
28897
7816.87
-7787.66
29489.8
9984.83
-8034.2
29910.6
11089.1
-7974.66
30293.2
11460.6
-7588.26
30727
11401.2
-6942
31274.8
11083.9
-6137.88
31812.6
10568.7
-5234.32
32081.8
9868.81
-4304.5
31905.5
8981.8
-3413.26
31202.4
7899.65
-2547.67
30056.2
6942.21
-1835.11
28502.1
6126.76
-1345.87
26663.3
5010.39
-736.727
4100.94
780.577
4795.58
1295.77
2537.85
8844.28
3867.66
-2243.94
11237.7
2843.69
48.9544
10207.6
-1337.79
350.437
11734
-2044.82
-3845.31
16268.3
-5477.43
-10913.8
20488.1
-6734.63
-12703.9
23786.6
-6927.2
-11024.9
26015.2
-5167.71
-8497.75
27534.6
575.166
-6263.05
28638.7
5875.87
-5668.28
29508.8
9784.68
-5952.67
30177.5
12468.3
-6379.14
30629.7
14004.9
-6623.09
30920.5
14630.3
-6584.09
31154.4
14627.5
-6279.56
31445.4
14234.2
-5794.47
31854.5
13599.7
-5189.33
32299.4
12829.1
-4518.29
32588.4
11958.2
-3832.64
32497.5
10949.5
-3105.56
32004.7
10049.8
-2411.73
30959.8
9457.6
-1844.14
29324.2
8439.64
-1157.8
7350.96
387.069
4863.41
1019.64
2944.19
9006.79
632.309
-2079.7
11223
1956.01
-1956.02
9881.14
3201.1
-1089.92
12808.8
554.792
-7837.12
17476.4
-3209.07
-14046
21461
-4399.13
-14394.7
24525.5
-5110.24
-11648.5
26513.8
-3745.73
-7873.62
27811.6
1302.7
-4636.9
28723
6344.84
-3326.59
29573.4
10544.9
-3319
30300.6
13716
-3808.78
30840.1
15737.5
-4316.65
31183
16740.7
-4626.59
31373
16954
-4692.41
31515
16609.5
-4566.52
31730.1
15908
-4305.49
32066.3
15026.6
-3970.05
32463.5
14091.2
-3602.08
32754.6
13073.4
-3160.3
32902
12183.8
-2654.57
32743.4
11790.4
-2212.35
32085.8
11100.7
-1623.43
10428.7
-117.451
4721.13
443.997
1845.22
8080.51
-1693.3
-2690.02
8492.34
1042.18
1381.26
9189.24
5374.31
-1581.44
13448.8
3144.27
-11836.5
18100.6
-406.686
-16682.5
21864
-1804.17
-15632.1
24778.9
-3141.74
-12034.7
26753.8
-2709.5
-7326.92
27776
1349.66
-3068.99
28479.2
5753.79
-879.319
29272.1
9993.23
-346.503
30021.2
13562.3
-697.479
30626.8
16116.6
-1363.96
31051.2
17603.3
-1984.06
31293.5
18184.2
-2414.24
31405.6
18069.3
-2655.04
31505.3
17444.1
-2756.05
31714.9
16538.5
-2764.41
32047
15552.6
-2729.24
32450.5
14494.8
-2612.52
32900.4
13567.9
-2397.07
33369.8
13223
-2170.81
33625.4
12786.3
-1828.14
12750.3
-412.299
4298.67
-56.4499
660.818
7416.84
-3341.46
-994.221
7478.36
744.424
4564.39
9740.4
5616.16
-2499.81
14063.8
5221.84
-14930.3
18339.8
2464.53
-18815.8
21894.2
835.123
-16712.8
24847.1
-1095.68
-12621.3
27256
-2226.81
-7195.14
28624.6
249.273
-1308.07
29239
3949.98
1828.34
29700
8207.9
2888.26
30139.9
12206.2
2674.68
30538.2
15312.9
1915.41
30856.7
17328.3
1062.19
31078.4
18354.5
321.404
31215.6
18576.2
-271.584
31328.5
18162.2
-727.612
31508.8
17358.1
-1071.38
31786.1
16409.5
-1352.97
32165.4
15374.1
-1561.75
32677.8
14427.8
-1657.2
33389.1
14037.3
-1684.88
34193.8
13718.7
-1582.85
13999
-531.43
4008.15
455.101
578.426
6650.18
-6373.75
107.185
6734.84
-144.18
6239.08
10491.3
7524.32
-2971.83
14758.3
8160.08
-16541.5
18656.4
5735.3
-20299.7
21996.2
3704.08
-17829.2
24954.2
1169.99
-13624.2
27736.2
-1454.48
-8424.73
29760.6
-1294.86
-1732.29
30634.2
1294.55
2714.4
30867.4
5185.46
5018.95
30923.4
9386.63
5616.58
30998.3
13031.1
5170.3
31111.4
15645
4278.13
31245.9
17233.3
3308.06
31370
17930.5
2408.39
31484.1
17908.2
1626.38
31627.6
17374.7
955.996
31842.2
16616.6
368.042
32137.1
15717.9
-148.681
32582.3
14837.6
-544.553
33289.3
14406.9
-826.544
34338.4
14039.7
-1012.36
14287.6
-407.07
4408.28
393.892
-69.31
5852.97
-7763.02
1589.45
5477.82
-645.06
8097.02
10592.1
9915.65
-2209.25
15337.1
12592.3
-16806.5
19406.6
10405.5
-21365.2
22538.9
7637.22
-19197.9
25065.2
4664.55
-15669.7
27541.9
1411.28
-11697.7
29931.6
-910.238
-5946.59
31565.3
-671.248
-77.0835
32057.2
2077.59
4149.62
31898
5779.5
6456.79
31575.7
9485.41
7145.19
31352.3
12495.9
6821.99
31280.6
14598.2
6014.92
31319.5
15837.3
5037.87
31417.1
16330.6
4044.97
31563
16252.6
3109.87
31770.5
15859.6
2242.09
32038.7
15276.8
1456.27
32438
14592.9
788.702
33107.4
14222.6
270.637
34211
13841.6
-157.376
13905.7
30.9013
4816.76
-55.6719
-588.309
5604.53
-7019.52
1622.2
4501.39
-1602.59
9906.23
10362.3
11410.1
409.881
15841.6
16983.4
-15143.4
20530.1
16044.5
-21780.3
24015.5
13104.2
-21275.4
26327.3
9965.44
-18479.6
27842
6945.88
-15786.4
29343.9
4038.98
-12908.7
31121.5
1743.85
-8263.04
32377.7
1210.93
-1789.5
32741.3
2916.47
3140.77
32421
5704.94
6038.2
31863
8473.91
7252.81
31363.8
10696.4
7349.14
31042
12271.8
6804.04
30902.7
13214.6
5935.49
30922
13620.7
4945.14
31086.3
13689.8
3933.48
31359.2
13552.8
2967.06
31760.7
13235.8
2102.91
32429.5
13086.2
1387.05
33552.9
12826.4
798.471
12882.3
685.198
5208.51
-1045.86
-480.535
6057.49
-5367.94
-942.142
3484.8
-3698.24
10653.3
9118.89
11377.6
5646.73
15902.5
19003.1
-10040.6
22039.3
20578.1
-19685.1
26568.8
18828.3
-22184
29541.7
16000.4
-20979.5
31106.3
13053.8
-18597.8
31653.9
10261.9
-16370
31870
7539.83
-14290.1
32274.5
4969
-10395
32722.2
3396.85
-4638.08
32896.5
3491.39
604.924
32719.4
4759.79
4068.25
32273.4
6345.79
5911.68
31743.2
7781.4
6542.67
31283.2
8868.41
6379.22
30978.3
9549.91
5753.6
30886.6
9954.15
4896.8
30998.4
10183
3956.21
31282.9
10263.1
3049.06
31860.1
10411.1
2246.22
32876.6
10428.1
1577.59
10846.5
1317.94
4085.28
-1236.02
-143.904
6179.56
-1915.63
-4606.84
2134.56
-4160.68
9470.4
6081.86
9471.66
12885.1
13580.3
16370.2
604.661
21762.9
19968.3
-10213.4
28102.2
20662.6
-15760.2
32409.1
19074.5
-16851.5
34958.1
16455.1
-15599.5
35985.1
13737.6
-13664.3
35760.8
11190
-11996.9
34856
8687.53
-10624.8
33959.7
6285.59
-8667.38
33356.1
4363.43
-5414.44
32892.3
3339.88
-1692.78
32429.7
3182.77
1320.06
31961.6
3562.93
3256.74
31523
4134.98
4218.25
31150
4673.75
4457.51
30940.8
5098.2
4221.28
30958.4
5441.06
3707.95
31171.1
5727.55
3077.54
31671.1
6042.63
2435.38
32662.2
6180.14
1864.48
7032.33
1659.73
4394.43
-1134.81
155.252
6121.64
2780.88
-3000.16
668.895
716.544
5242.98
1044.36
6237.72
17527.1
7504.35
8899.24
12418.3
15063.5
12881.5
5684.45
22174.6
14577.4
1203.75
27890.5
14199.9
-789.902
32009.3
12770.6
-1190.92
34646.1
11108.7
-1063.67
35986.4
9604.03
-1035.56
36392.1
8244.11
-1359.57
36243
6871.34
-1806.3
35769.9
5455.29
-1841.68
35137.5
4176.71
-1252.37
34461
3198.08
-251.216
33812
2563.35
800.666
33242.7
2235.29