/*--------------------------------*- C++ -*----------------------------------*\
  =========                 |
  \\      /  F ield         | OpenFOAM: The Open Source CFD Toolbox
   \\    /   O peration     | Website:  https://openfoam.org
    \\  /    A nd           | Version:  11
     \\/     M anipulation  |
\*---------------------------------------------------------------------------*/
FoamFile
{
    format      ascii;
    class       volVectorField;
    location    "40";
    object      U;
}
// * * * * * * * * * * * * * * * * * * * * * * * * * * * * * * * * * * * * * //

dimensions      [0 1 -1 0 0 0 0];

internalField   nonuniform List<vector> 
17196
(
(1.10924 -0.0317991 0.0867707)
(1.17561 0.106355 0.520112)
(1.52333 0.212776 0.719185)
(2.19559 0.143259 0.64088)
(2.55244 0.102524 0.333644)
(2.58668 0.154845 0.0896389)
(2.64384 0.258799 0.124675)
(2.30311 0.306573 0.0180824)
(2.15347 0.443266 -0.181296)
(1.12156 0.299614 1.2794)
(1.12709 -0.189757 1.75622)
(1.82161 -0.547703 1.7054)
(2.82616 -0.747125 1.46923)
(3.77963 -0.831143 1.2067)
(4.53749 -0.84625 0.979494)
(5.06416 -0.819905 0.79304)
(5.41142 -0.778478 0.640534)
(5.64633 -0.730297 0.517131)
(5.78272 -0.682227 0.41168)
(5.79832 -0.634216 0.321924)
(5.68526 -0.585213 0.244838)
(5.48805 -0.530719 0.173255)
(5.14531 -0.481056 0.0998415)
(5.11463 -0.489101 -0.0369208)
(4.94343 -0.530799 -0.241728)
(1.14817 -0.0524401 0.109192)
(1.39854 0.201344 0.369267)
(1.78555 0.18445 0.694651)
(2.46208 -0.0267267 0.793955)
(3.20473 0.146667 0.405601)
(3.29269 0.378934 0.0803103)
(3.07035 0.409692 0.0783748)
(2.00348 0.51743 1.04622)
(1.56316 0.520382 2.11689)
(2.09472 0.108634 2.58525)
(3.26866 -0.341742 1.87523)
(4.6026 -0.636951 1.06235)
(5.98399 -0.77247 0.42009)
(7.24146 -0.797186 -0.0152379)
(8.28445 -0.760794 -0.290909)
(9.10699 -0.687927 -0.455485)
(9.74374 -0.603431 -0.542212)
(10.2574 -0.524926 -0.583606)
(10.6772 -0.463021 -0.604218)
(11.007 -0.41126 -0.6104)
(11.2435 -0.360688 -0.601203)
(11.4062 -0.319186 -0.591552)
(11.4764 -0.30554 -0.586301)
(11.8129 -0.354587 -0.603925)
(11.6484 -0.43331 -0.547047)
(1.09007 -0.131518 0.074637)
(1.19378 0.137779 0.16415)
(2.53182 0.0854059 0.168667)
(2.85368 -0.157442 0.274273)
(2.50765 0.0898753 0.336191)
(2.59141 0.559287 -0.0588371)
(1.94481 1.04522 0.0338156)
(1.44285 0.611608 0.949248)
(1.43492 -0.0799617 2.00633)
(1.95856 -0.586855 2.23113)
(2.96695 -0.692979 1.46672)
(4.19055 -0.674498 0.678274)
(5.47607 -0.610642 0.0665258)
(6.65301 -0.5176 -0.331454)
(7.61939 -0.417633 -0.56236)
(8.36888 -0.314709 -0.681842)
(8.95062 -0.221013 -0.732826)
(9.42834 -0.152847 -0.749411)
(9.82466 -0.111637 -0.7531)
(10.1394 -0.080829 -0.749109)
(10.3765 -0.0492193 -0.740402)
(10.5567 -0.0330254 -0.740558)
(10.6437 -0.0492572 -0.751284)
(10.9347 -0.105306 -0.77189)
(11.0061 -0.194077 -0.715156)
(1.02431 -0.137853 -0.00772106)
(1.23549 -0.0411666 -0.160683)
(2.46539 0.111757 -0.0452813)
(2.55447 0.201861 -0.069815)
(2.14694 0.594766 0.144953)
(1.34204 1.19701 0.548102)
(1.28152 0.69401 0.945369)
(1.57438 -0.251013 1.32405)
(1.74859 -1.10242 1.86142)
(2.358 -1.3048 2.04741)
(3.49098 -0.906038 1.29776)
(4.6553 -0.511082 0.469813)
(5.79829 -0.210841 -0.173015)
(6.82139 0.0121028 -0.585383)
(7.66176 0.168555 -0.820258)
(8.32388 0.27661 -0.943732)
(8.85453 0.343107 -1.00143)
(9.31074 0.378059 -1.02013)
(9.70373 0.391156 -1.01871)
(10.02 0.394551 -1.00779)
(10.2613 0.390987 -0.992101)
(10.4462 0.375039 -0.978211)
(10.5268 0.332625 -0.971457)
(10.7428 0.259341 -0.972864)
(10.765 0.125122 -0.892127)
(0.969801 -0.0956677 0.00295639)
(1.18845 -0.123418 -0.275717)
(2.20636 0.171988 -0.123953)
(2.53088 0.630273 -0.18627)
(2.18396 1.27697 0.758928)
(1.10926 0.507438 1.71951)
(1.40173 -0.279717 1.47319)
(1.88472 -1.30672 1.26736)
(2.01413 -1.87738 1.331)
(2.18888 -2.02299 1.64423)
(3.49642 -1.04408 1.60839)
(4.65592 -0.323304 0.997675)
(5.75323 0.188561 0.373965)
(6.73318 0.527955 -0.102831)
(7.54951 0.732411 -0.43118)
(8.20131 0.840403 -0.649697)
(8.72743 0.886726 -0.787065)
(9.18416 0.898397 -0.866742)
(9.57965 0.88716 -0.90901)
(9.89758 0.861762 -0.929385)
(10.1349 0.825576 -0.933781)
(10.3067 0.781305 -0.92986)
(10.3667 0.716667 -0.928782)
(10.5482 0.63308 -0.928624)
(10.4658 0.473547 -0.834145)
(0.929541 -0.0377459 0.0838314)
(1.05399 -0.196145 -0.281714)
(2.33021 0.247069 -0.426366)
(1.94607 0.932725 0.831528)
(1.37181 0.942191 1.92725)
(1.18943 -0.323311 2.00179)
(1.64937 -1.03286 1.5239)
(2.12196 -2.11739 0.913917)
(2.21082 -2.46108 0.921348)
(2.01025 -2.84438 0.870687)
(3.17417 -1.88179 1.31602)
(4.47361 -0.702625 1.24656)
(5.56321 0.0795534 0.873483)
(6.51271 0.582177 0.461876)
(7.30618 0.894673 0.113877)
(7.94026 1.06981 -0.156732)
(8.45448 1.15938 -0.354454)
(8.903 1.19443 -0.491908)
(9.29586 1.193 -0.584082)
(9.61722 1.1664 -0.644659)
(9.85414 1.12477 -0.680139)
(10.0199 1.07176 -0.701545)
(10.0784 0.995758 -0.723429)
(10.291 0.916267 -0.728629)
(10.102 0.767332 -0.631273)
(0.930629 0.0180776 0.14748)
(0.957742 -0.280475 -0.30346)
(2.41566 0.934675 0.521557)
(1.28714 0.679851 2.0636)
(1.02633 0.0441476 2.50648)
(1.37891 -0.914525 1.99652)
(1.94728 -1.74494 1.29751)
(2.4711 -2.51635 0.648583)
(2.55754 -3.00398 0.544444)
(2.46632 -3.26203 0.68741)
(2.6533 -3.05914 0.948335)
(4.01958 -1.72618 1.22058)
(5.19502 -0.574996 1.14692)
(6.20827 0.197046 0.881476)
(7.0356 0.683256 0.569761)
(7.6824 0.970134 0.281203)
(8.19826 1.132 0.0447659)
(8.64412 1.21269 -0.135915)
(9.0378 1.24182 -0.269283)
(9.36922 1.23636 -0.364374)
(9.62285 1.21277 -0.429631)
(9.81643 1.17737 -0.479608)
(9.89394 1.11801 -0.517666)
(10.0954 1.05601 -0.511727)
(9.71335 0.955322 -0.390827)
(0.959373 0.082976 0.155112)
(0.930697 -0.218708 -0.444135)
(2.40077 0.803489 1.46851)
(0.858586 -0.117215 2.7948)
(1.04395 -0.813975 2.60882)
(1.56895 -1.59964 1.94362)
(2.24274 -2.31283 1.08054)
(2.86491 -2.78381 0.532477)
(3.21302 -3.23021 0.206944)
(3.1549 -3.515 0.379777)
(2.99847 -3.58013 0.539319)
(3.42223 -3.12014 0.880711)
(4.64121 -1.88031 1.10924)
(5.6276 -0.80931 1.08281)
(6.46374 -0.0602704 0.887622)
(7.13872 0.43377 0.636623)
(7.68509 0.746374 0.391695)
(8.15371 0.934495 0.180233)
(8.55757 1.03475 0.0112388)
(8.88563 1.07509 -0.112661)
(9.12149 1.08057 -0.197941)
(9.28106 1.06658 -0.260613)
(9.30193 1.02178 -0.304851)
(9.50037 1.00573 -0.303209)
(9.09256 0.984518 -0.188315)
(0.994333 0.172569 0.154974)
(1.0464 0.00781849 -0.944495)
(2.527 0.557453 2.2689)
(0.493754 -0.894818 3.33781)
(1.03148 -1.51611 2.66972)
(1.69876 -2.26096 1.76367)
(2.32322 -2.79019 1.08185)
(3.25379 -3.18752 0.322889)
(4.10628 -3.29544 -0.099157)
(4.32477 -3.50926 -0.0628925)
(4.10473 -3.55064 0.279815)
(3.87877 -3.40625 0.501558)
(4.22165 -2.961 0.806555)
(5.01794 -2.06525 0.966772)
(5.74765 -1.21229 0.951337)
(6.38506 -0.548461 0.811176)
(6.92136 -0.06666 0.620188)
(7.38898 0.270287 0.422856)
(7.79357 0.490839 0.245347)
(8.1197 0.62606 0.102504)
(8.34188 0.70613 -0.00333628)
(8.4826 0.758007 -0.0847969)
(8.48301 0.756869 -0.145485)
(8.68485 0.820894 -0.175172)
(8.3802 0.858339 -0.0689097)
(1.01969 0.274589 0.149327)
(1.58975 0.547981 -0.916146)
(2.53142 0.200981 3.08892)
(0.184404 -1.51819 3.67835)
(1.10385 -1.99772 2.57669)
(1.69671 -2.63533 1.64634)
(2.37716 -3.20832 1.05175)
(3.40579 -3.43146 0.372041)
(4.60582 -3.41642 -0.16653)
(5.55295 -3.36398 -0.434718)
(5.61408 -3.35572 -0.236535)
(5.17202 -3.24422 0.146692)
(4.70509 -2.96909 0.42096)
(4.6918 -2.616 0.690668)
(5.04347 -2.0779 0.830044)
(5.50526 -1.48983 0.82835)
(5.95926 -0.96629 0.730197)
(6.39284 -0.543598 0.587878)
(6.78472 -0.222839 0.435513)
(7.10668 0.00693108 0.294929)
(7.32863 0.174875 0.177023)
(7.47495 0.307312 0.0795741)
(7.48071 0.369147 0.00101312)
(7.69281 0.501261 -0.0680955)
(7.54016 0.589643 0.000243743)
(1.0273 0.316231 0.116744)
(2.11623 0.76578 0.943658)
(2.19498 -0.270173 3.65186)
(-0.0622712 -1.91771 3.79617)
(1.24226 -2.23023 2.35543)
(1.69511 -2.92343 1.45043)
(2.533 -3.50475 0.818169)
(3.61609 -3.68858 0.314292)
(4.82666 -3.50123 -0.0770603)
(6.00314 -3.16085 -0.315621)
(6.79234 -2.8994 -0.433582)
(6.86824 -2.79224 -0.351817)
(6.39684 -2.61343 -0.0674825)
(5.74017 -2.3546 0.217321)
(5.23994 -2.09743 0.493544)
(4.98536 -1.82508 0.672375)
(4.99583 -1.49126 0.716576)
(5.18094 -1.14004 0.664379)
(5.45907 -0.818136 0.559497)
(5.73462 -0.553575 0.439454)
(5.94343 -0.33869 0.324023)
(6.1009 -0.159272 0.22075)
(6.12676 -0.056822 0.129879)
(6.39216 0.0972649 0.025619)
(6.38608 0.221487 0.0970174)
(0.994932 0.311376 0.0903364)
(2.13183 0.642483 2.19792)
(1.70745 -0.700463 3.81361)
(-0.364173 -2.2837 3.8386)
(1.28255 -2.34022 2.21556)
(1.71142 -3.14666 1.20285)
(2.7434 -3.63141 0.515162)
(3.98413 -3.71174 0.0733396)
(5.18158 -3.50699 -0.139101)
(6.22143 -3.10301 -0.199861)
(6.99903 -2.64591 -0.247155)
(7.46363 -2.25924 -0.359018)
(7.66234 -1.9853 -0.388097)
(7.56015 -1.76077 -0.231313)
(7.07227 -1.57191 0.00633851)
(6.37301 -1.41675 0.264179)
(5.59523 -1.31138 0.481514)
(4.93968 -1.20347 0.580009)
(4.55167 -1.05821 0.572124)
(4.37937 -0.887505 0.500595)
(4.31531 -0.712959 0.405988)
(4.33794 -0.546102 0.30504)
(4.31183 -0.433275 0.206238)
(4.62758 -0.293641 0.0937776)
(4.80816 -0.0926112 0.214687)
(0.904483 0.340812 0.0612924)
(1.85875 0.389474 2.93005)
(1.28471 -1.08244 3.76021)
(-0.605916 -2.70667 3.92732)
(1.27493 -2.50166 2.05036)
(1.77312 -3.28732 0.873701)
(3.02082 -3.62488 0.184381)
(4.39045 -3.5536 -0.146907)
(5.62434 -3.23306 -0.228252)
(6.61374 -2.78273 -0.193081)
(7.27039 -2.36295 -0.214267)
(7.65588 -1.93699 -0.294897)
(7.90598 -1.53789 -0.363223)
(8.11631 -1.22021 -0.354408)
(8.24567 -0.962995 -0.224799)
(8.08489 -0.776577 -0.00753484)
(7.53748 -0.679607 0.215065)
(6.68336 -0.67623 0.379725)
(5.69967 -0.715433 0.461262)
(4.74875 -0.750518 0.46158)
(3.91709 -0.765142 0.408421)
(3.30835 -0.747296 0.329627)
(2.85658 -0.689649 0.222947)
(2.92526 -0.649244 0.138217)
(3.06737 -0.337338 0.291181)
(0.919354 0.359616 0.690223)
(1.33854 0.0708378 3.02858)
(1.06593 -1.39299 3.56159)
(-0.73035 -3.04571 3.98491)
(1.28075 -2.64789 1.76461)
(1.88416 -3.28045 0.445536)
(3.32693 -3.43632 -0.181707)
(4.80142 -3.26476 -0.351831)
(6.03881 -2.90875 -0.280396)
(6.94546 -2.45399 -0.176175)
(7.52183 -1.97108 -0.178625)
(7.8765 -1.48906 -0.253257)
(8.16387 -1.04816 -0.278213)
(8.39154 -0.724133 -0.262963)
(8.63261 -0.46026 -0.2064)
(8.77711 -0.280407 -0.111756)
(8.74781 -0.172891 0.0262887)
(8.40345 -0.133282 0.171888)
(7.7524 -0.166277 0.283668)
(6.8748 -0.244703 0.341977)
(5.84292 -0.356884 0.350408)
(4.76015 -0.47937 0.331377)
(3.66558 -0.543035 0.254739)
(2.99254 -0.741119 0.164622)
(2.09962 -0.504217 0.310575)
(0.884458 0.278439 1.22006)
(1.02672 -0.109681 2.61378)
(1.35026 -1.42404 3.02987)
(-0.637991 -3.04096 3.84827)
(1.29705 -2.63353 1.36321)
(2.01811 -3.06275 -0.0440516)
(3.62889 -3.05076 -0.547464)
(5.19322 -2.81819 -0.54297)
(6.42895 -2.48313 -0.343574)
(7.25056 -2.10403 -0.177602)
(7.75424 -1.63224 -0.115828)
(8.14047 -1.03252 -0.0769632)
(8.43974 -0.537576 -0.0403142)
(8.67318 -0.216098 -0.0500505)
(8.88088 -0.00569786 -0.0653818)
(9.06511 0.14591 -0.0628232)
(9.2032 0.247785 -0.029559)
(9.22912 0.287259 0.0376425)
(9.04911 0.266932 0.116064)
(8.62626 0.200767 0.175952)
(7.97975 0.0934243 0.211214)
(7.14417 -0.0320424 0.241921)
(6.06767 -0.0780594 0.226774)
(5.18319 -0.295195 0.216523)
(3.31508 -0.286393 0.300889)
(0.991991 0.152774 1.20166)
(1.41035 -0.199381 0.916926)
(2.2047 -0.920384 1.9697)
(-0.375205 -2.50453 3.38466)
(1.2437 -2.37948 0.838787)
(2.09129 -2.62258 -0.569708)
(3.85314 -2.51112 -0.893646)
(5.51637 -2.29038 -0.70636)
(6.76344 -2.05566 -0.413673)
(7.52949 -1.79372 -0.19113)
(8.01172 -1.34052 -0.00354748)
(8.4126 -0.681615 0.205048)
(8.65914 -0.183947 0.282502)
(8.85204 0.157465 0.268009)
(9.01651 0.378437 0.21957)
(9.16243 0.509503 0.166415)
(9.30412 0.579636 0.124748)
(9.42428 0.599096 0.108603)
(9.4736 0.571384 0.117477)
(9.39153 0.507508 0.133848)
(9.12475 0.404792 0.143499)
(8.69056 0.301687 0.167503)
(7.99008 0.26073 0.158242)
(7.33466 0.202842 0.192346)
(5.69547 0.0369844 0.253315)
(1.01571 -0.0412567 0.617192)
(2.10439 -0.23 0.500404)
(2.834 -0.197213 1.05944)
(0.210639 -1.55339 2.17565)
(1.01336 -1.82119 0.041753)
(1.99003 -1.95142 -1.16524)
(3.94172 -1.84314 -1.23332)
(5.74761 -1.713 -0.842743)
(7.05629 -1.62865 -0.446147)
(7.80765 -1.53186 -0.18042)
(8.25669 -1.20425 0.0935208)
(8.62183 -0.596099 0.419179)
(8.84527 -0.0602826 0.588802)
(9.00425 0.344049 0.623374)
(9.12561 0.611795 0.585976)
(9.22374 0.763129 0.516306)
(9.32218 0.826556 0.435774)
(9.42766 0.825717 0.364977)
(9.51269 0.782038 0.313134)
(9.54454 0.716 0.274139)
(9.4707 0.61486 0.240517)
(9.27911 0.522382 0.223554)
(8.89603 0.495914 0.201368)
(8.57046 0.475042 0.192442)
(7.18052 0.490683 0.340024)
(0.824645 -0.139693 0.0443604)
(1.77813 -0.640145 1.48977)
(2.41509 -0.434032 1.67512)
(0.569073 -0.114412 1.17407)
(0.454662 -0.778591 -1.23336)
(1.50073 -1.14315 -1.93852)
(3.83595 -1.11997 -1.60608)
(5.87841 -1.14186 -0.994025)
(7.30347 -1.25312 -0.461144)
(7.97687 -1.31899 -0.105119)
(8.13819 -1.212 0.157516)
(8.29378 -0.759542 0.48654)
(8.49629 -0.220885 0.734207)
(8.70021 0.237061 0.852954)
(8.87839 0.573693 0.881891)
(9.02221 0.782583 0.853799)
(9.1385 0.884829 0.788661)
(9.22988 0.904998 0.705661)
(9.29069 0.869184 0.618864)
(9.33129 0.808659 0.535122)
(9.33043 0.721947 0.45959)
(9.26488 0.631245 0.403441)
(9.04511 0.622669 0.348816)
(9.00811 0.611442 0.334828)
(8.14793 0.873255 0.412379)
(0.663662 -0.172101 0.331125)
(1.57247 -1.08209 1.38933)
(2.06276 -0.767556 1.5892)
(-0.265186 0.812228 2.11181)
(0.442673 0.789631 -1.51789)
(1.29546 -0.102776 -2.46204)
(3.66086 -0.424748 -2.03452)
(5.88455 -0.640664 -1.29999)
(7.5036 -0.900163 -0.604017)
(8.22224 -1.15438 -0.143465)
(8.20457 -1.25341 0.115188)
(7.9489 -1.07127 0.349496)
(7.80321 -0.655882 0.607485)
(7.83354 -0.178591 0.820188)
(7.94787 0.219735 0.941727)
(8.09348 0.50307 0.989078)
(8.24311 0.677838 0.979509)
(8.37538 0.758473 0.928085)
(8.48196 0.766602 0.851869)
(8.57401 0.73542 0.762965)
(8.65156 0.681571 0.674961)
(8.7004 0.614078 0.599584)
(8.65081 0.601443 0.533302)
(8.77755 0.643185 0.483385)
(8.42365 0.865726 0.505869)
(0.80113 -0.137638 0.0783887)
(1.9966 -1.2593 1.51801)
(1.15637 -0.981437 1.83789)
(-0.866362 1.27729 3.03431)
(0.820378 2.01956 -0.805246)
(1.67447 1.24118 -2.20511)
(3.63509 0.554273 -2.18252)
(5.72228 -0.00157141 -1.64605)
(7.53235 -0.469262 -0.941876)
(8.58564 -0.906204 -0.406348)
(8.80552 -1.14556 -0.0738575)
(8.47592 -1.17603 0.108057)
(7.92547 -1.00414 0.265048)
(7.38508 -0.699427 0.466023)
(7.04362 -0.346975 0.66669)
(6.8805 -0.0464213 0.807058)
(6.85355 0.182295 0.882521)
(6.91315 0.332683 0.901618)
(7.01471 0.410366 0.875783)
(7.14092 0.435008 0.822193)
(7.2893 0.432458 0.757035)
(7.45559 0.409422 0.694233)
(7.58003 0.417686 0.638201)
(7.82295 0.439758 0.598187)
(7.93351 0.619512 0.609569)
(0.708502 -0.1481 -0.193534)
(2.32716 -1.49811 1.91853)
(1.17721 -1.61572 1.70579)
(-1.13363 1.27923 3.52573)
(1.06035 2.68111 -0.181129)
(1.99127 2.34362 -1.79524)
(3.87005 1.60994 -2.13287)
(5.74623 0.826681 -1.92024)
(7.4693 0.125432 -1.47506)
(8.78732 -0.404868 -1.00647)
(9.56709 -0.784521 -0.648412)
(9.73488 -0.933527 -0.399828)
(9.38317 -0.898261 -0.230908)
(8.73155 -0.757743 -0.0967683)
(7.91905 -0.57079 0.0737577)
(7.108 -0.409686 0.23727)
(6.46055 -0.275075 0.376283)
(6.02292 -0.168147 0.471429)
(5.77506 -0.0923191 0.518453)
(5.67836 -0.0482077 0.528168)
(5.70194 -0.0242536 0.517378)
(5.83353 -0.0135903 0.502267)
(6.01354 0.0156439 0.498926)
(6.29569 0.0333923 0.51273)
(6.67654 0.209029 0.590035)
(0.742815 -0.274342 -0.202378)
(2.50769 -1.60483 1.98972)
(2.62724 -2.40984 0.888909)
(-1.40722 0.912037 4.09912)
(1.08062 2.86623 0.69322)
(2.20151 3.1236 -1.16251)
(4.14229 2.58895 -1.92589)
(6.08288 1.81095 -2.08061)
(7.67068 1.03304 -1.99539)
(8.96255 0.395983 -1.7757)
(9.8595 -0.0662681 -1.5457)
(10.4329 -0.361024 -1.29054)
(10.6874 -0.480414 -1.02879)
(10.5773 -0.450534 -0.796153)
(10.1511 -0.353824 -0.608136)
(9.51612 -0.266194 -0.469126)
(8.76263 -0.222679 -0.360536)
(8.02675 -0.211748 -0.283083)
(7.40107 -0.219956 -0.23546)
(6.92946 -0.241208 -0.216138)
(6.61138 -0.273186 -0.212803)
(6.44756 -0.306128 -0.206776)
(6.35172 -0.314089 -0.162235)
(6.3654 -0.359811 -0.0854856)
(6.35025 -0.237005 0.13857)
(0.693896 -0.381942 -0.251542)
(2.33608 -1.4192 1.69323)
(3.82863 -2.42498 0.449872)
(-1.53321 0.254114 4.16641)
(0.878201 2.52494 1.67738)
(2.08996 3.3848 -0.102398)
(4.20063 3.26472 -1.2172)
(6.33335 2.74457 -1.75999)
(8.10007 2.11758 -1.97344)
(9.43496 1.54498 -2.02145)
(10.3575 1.0698 -1.97511)
(10.8997 0.684514 -1.85316)
(11.1235 0.411508 -1.68434)
(11.1394 0.259692 -1.49235)
(11.0325 0.197576 -1.30127)
(10.837 0.171921 -1.13975)
(10.5774 0.147094 -1.02708)
(10.2734 0.111664 -0.960921)
(9.99579 0.0692908 -0.935177)
(9.78383 0.0244062 -0.939588)
(9.64149 -0.0202316 -0.959636)
(9.58171 -0.0596362 -0.982945)
(9.52622 -0.072361 -0.977277)
(9.60692 -0.109221 -0.940642)
(9.25324 -0.0861808 -0.68085)
(0.748142 -0.38569 -0.169846)
(1.82018 -1.03005 1.27424)
(4.74573 -1.46614 0.530342)
(-1.26822 -0.821553 3.21545)
(0.264128 1.47498 2.34507)
(1.18607 2.89986 1.02114)
(3.30602 3.39851 0.144228)
(5.6413 3.24254 -0.359358)
(7.64223 2.83448 -0.573482)
(9.21581 2.39506 -0.65214)
(10.3623 1.99798 -0.668743)
(11.1374 1.65074 -0.644481)
(11.6125 1.34837 -0.601444)
(11.8625 1.10201 -0.560579)
(11.9568 0.915716 -0.529298)
(11.9408 0.773022 -0.507591)
(11.8471 0.655885 -0.500798)
(11.7116 0.551187 -0.516918)
(11.5666 0.455294 -0.556985)
(11.4446 0.365668 -0.617963)
(11.3586 0.282706 -0.689095)
(11.3176 0.210537 -0.760445)
(11.2892 0.157697 -0.818919)
(11.4107 0.127319 -0.857595)
(11.4222 0.142132 -0.737594)
(0.914804 -0.175206 0.02452)
(1.98958 -0.599871 -4.43756)
(7.47231 -0.968865 -1.87271)
(-0.0156024 -0.537182 1.96766)
(-0.813154 0.803906 2.03031)
(-1.41938 1.61068 1.5305)
(-0.416737 2.16553 1.3729)
(1.71339 2.30718 1.38136)
(3.57672 2.17044 1.40528)
(4.99287 1.94658 1.39865)
(5.95515 1.70779 1.35431)
(6.52729 1.47128 1.28885)
(6.77958 1.24163 1.19922)
(6.80403 1.03938 1.08591)
(6.7022 0.877604 0.961401)
(6.55593 0.752158 0.838353)
(6.40542 0.650311 0.721307)
(6.28252 0.563599 0.604174)
(6.22001 0.489495 0.479488)
(6.24763 0.425118 0.34524)
(6.37944 0.369152 0.207341)
(6.62026 0.323941 0.078397)
(6.91559 0.280875 -0.0363222)
(7.30025 0.259568 -0.108983)
(7.76042 0.275674 -0.0456688)
(1.04871 0.0311314 0.473602)
(0.799973 0.154684 0.325201)
(2.12858 0.125066 -0.235854)
(3.58831 0.239532 -0.470206)
(3.94382 0.261997 -0.331517)
(4.33086 0.304739 -0.0161367)
(4.37464 0.517979 0.279665)
(3.09331 0.534729 1.07427)
(2.00354 0.0497136 1.8019)
(2.13756 -0.518391 1.63981)
(3.24342 -0.932836 1.37294)
(4.69513 -1.16362 1.33332)
(6.11355 -1.25691 1.4359)
(7.30383 -1.27139 1.59058)
(8.21221 -1.23778 1.71536)
(8.86283 -1.18058 1.78077)
(9.31393 -1.1149 1.7988)
(9.63192 -1.04757 1.78212)
(9.83218 -0.976075 1.73843)
(9.9075 -0.901169 1.67159)
(9.85115 -0.824385 1.58748)
(9.6785 -0.750121 1.48643)
(9.31771 -0.689993 1.35604)
(9.07133 -0.613669 1.17508)
(8.05352 -0.624911 0.856433)
(1.24053 0.132768 0.292965)
(1.62359 0.275646 0.124907)
(2.71609 0.091255 0.6869)
(3.95166 0.166596 0.222824)
(4.93821 0.433578 0.321265)
(4.56884 0.45903 0.893197)
(3.00897 0.476897 2.10005)
(2.13829 0.20955 3.06406)
(2.59754 -0.3731 2.91265)
(4.12855 -0.878221 1.45195)
(5.82334 -1.21498 -0.141643)
(7.32344 -1.32644 -1.19431)
(8.54719 -1.27901 -1.68593)
(9.465 -1.15498 -1.79811)
(10.1031 -1.00855 -1.70075)
(10.5086 -0.868745 -1.51453)
(10.7512 -0.741638 -1.29968)
(10.9008 -0.629256 -1.08869)
(10.9921 -0.530565 -0.906726)
(11.0333 -0.442842 -0.763316)
(11.0411 -0.360226 -0.651542)
(11.0421 -0.274006 -0.575002)
(10.9805 -0.210156 -0.553712)
(11.0765 -0.146033 -0.585778)
(11.2078 -0.14654 -0.498044)
(1.31613 0.141894 0.153831)
(1.82999 0.198206 0.212264)
(3.2434 0.133007 0.845536)
(2.99818 0.00758735 0.96295)
(3.85766 0.333347 0.801495)
(3.23952 0.724214 1.20946)
(1.93186 0.428994 2.35294)
(1.75301 -0.409235 3.00624)
(2.37409 -1.15156 2.65424)
(3.90734 -1.53726 0.928849)
(5.51445 -1.72862 -0.844869)
(6.88459 -1.72977 -1.96989)
(7.95251 -1.61751 -2.47314)
(8.71297 -1.45675 -2.54853)
(9.2066 -1.29238 -2.38084)
(9.50023 -1.14261 -2.1059)
(9.6752 -1.01149 -1.80187)
(9.80653 -0.898857 -1.51336)
(9.91322 -0.804428 -1.27315)
(9.98416 -0.723698 -1.08941)
(10.0173 -0.646845 -0.950522)
(10.0216 -0.555704 -0.853273)
(9.96112 -0.484379 -0.819546)
(9.99562 -0.465077 -0.824135)
(10.086 -0.403752 -0.723309)
(1.39388 0.102638 0.106895)
(1.78386 0.109353 0.260408)
(2.84782 0.207292 1.22152)
(2.17085 -0.0320824 1.66347)
(2.4545 0.305679 1.20475)
(1.60037 0.551982 2.03374)
(1.92683 -0.444102 2.56312)
(2.08415 -1.24336 2.89816)
(2.54646 -1.67371 2.53307)
(3.89561 -1.74947 0.967584)
(5.40936 -1.72734 -0.874841)
(6.68149 -1.60048 -2.10148)
(7.64013 -1.43148 -2.67075)
(8.33413 -1.25931 -2.77)
(8.82388 -1.10614 -2.60925)
(9.16535 -0.980365 -2.34426)
(9.42434 -0.880022 -2.05432)
(9.65759 -0.79792 -1.77918)
(9.86661 -0.726041 -1.54581)
(10.0284 -0.658846 -1.36125)
(10.1298 -0.587442 -1.21631)
(10.1727 -0.501745 -1.10826)
(10.1434 -0.449208 -1.06189)
(10.199 -0.45009 -1.04445)
(10.1261 -0.390355 -0.853605)
(1.4079 0.0977267 0.126598)
(1.60822 0.0757402 0.189225)
(2.39647 0.254391 1.51378)
(1.66067 -0.136515 2.13262)
(1.59428 0.0825719 1.78279)
(1.58923 -0.349863 2.60919)
(2.22959 -1.19659 2.45854)
(2.49836 -1.84746 2.40944)
(2.7012 -2.15346 2.05032)
(3.31916 -2.06326 1.62295)
(4.58857 -1.81892 0.573826)
(5.8932 -1.56067 -0.443474)
(6.98666 -1.3624 -1.09975)
(7.85343 -1.21924 -1.40781)
(8.51535 -1.11642 -1.4792)
(9.00724 -1.04091 -1.42266)
(9.38503 -0.978223 -1.30228)
(9.70423 -0.921036 -1.15874)
(9.97208 -0.86579 -1.02387)
(10.1752 -0.807245 -0.915089)
(10.3097 -0.734706 -0.834631)
(10.3802 -0.648356 -0.779533)
(10.3624 -0.604858 -0.757345)
(10.4246 -0.582809 -0.752739)
(10.2425 -0.477426 -0.540094)
(1.373 0.144861 0.215642)
(1.48434 0.102354 0.341086)
(2.19761 0.324478 1.64579)
(1.39266 -0.332831 2.68099)
(1.34505 -0.537512 2.72992)
(2.04414 -0.783367 2.60264)
(2.50385 -1.46381 2.27271)
(2.94398 -2.07398 1.80929)
(3.24704 -2.43238 1.56547)
(3.55176 -2.49953 1.17429)
(4.04481 -2.33982 0.84982)
(5.03163 -2.01893 0.701509)
(6.00276 -1.72006 0.500598)
(6.85229 -1.48956 0.340556)
(7.55176 -1.32807 0.242614)
(8.10128 -1.21773 0.188474)
(8.53804 -1.13577 0.165646)
(8.91241 -1.06704 0.162367)
(9.23338 -1.00564 0.159242)
(9.49135 -0.940639 0.141234)
(9.68315 -0.853576 0.105655)
(9.8098 -0.749496 0.0573966)
(9.82132 -0.687297 -0.00129948)
(9.94285 -0.624384 -0.0755867)
(9.82113 -0.459243 0.100759)
(1.35666 0.216699 0.295817)
(1.41093 0.18335 0.480876)
(2.14361 0.423668 1.90754)
(1.51598 -0.519957 2.98853)
(1.75421 -0.904942 2.8457)
(2.46393 -0.836046 2.36926)
(2.76881 -1.38914 1.94524)
(3.26091 -1.94801 1.42523)
(3.84499 -2.3923 1.23187)
(4.40389 -2.59411 0.90378)
(4.84993 -2.54617 0.676955)
(5.3513 -2.3759 0.668714)
(5.9338 -2.21933 0.699458)
(6.5365 -2.09719 0.731223)
(7.08011 -1.97488 0.773653)
(7.52042 -1.84951 0.806201)
(7.87808 -1.73219 0.821026)
(8.20224 -1.62168 0.82488)
(8.49936 -1.51723 0.80991)
(8.75477 -1.41025 0.769117)
(8.94698 -1.2802 0.703095)
(9.0646 -1.13569 0.632609)
(9.0605 -1.03067 0.552022)
(9.33353 -0.896314 0.465883)
(9.4609 -0.602021 0.614176)
(1.36223 0.275528 0.331883)
(1.35118 0.241111 0.393651)
(2.21731 0.223402 2.01181)
(1.81699 -0.759397 2.94335)
(2.49909 -0.989878 2.18465)
(2.7386 -0.877644 1.92384)
(3.01363 -1.11587 1.49647)
(3.50751 -1.71207 0.927811)
(4.20366 -2.18344 0.728298)
(5.01918 -2.40714 0.751452)
(5.68855 -2.43075 0.652335)
(6.15908 -2.35868 0.571742)
(6.62418 -2.25673 0.663288)
(7.11508 -2.1575 0.836995)
(7.56669 -2.07037 0.970478)
(7.94668 -1.98357 1.04504)
(8.27677 -1.88794 1.08227)
(8.59289 -1.77972 1.0994)
(8.89708 -1.66014 1.09388)
(9.18675 -1.52003 1.06125)
(9.43092 -1.34477 1.00397)
(9.61038 -1.1617 0.935588)
(9.66695 -1.0175 0.84015)
(10.0008 -0.857772 0.769485)
(10.1029 -0.5253 0.884831)
(1.39176 0.314966 0.348733)
(1.39907 0.263298 0.172664)
(2.37271 0.0571523 2.13909)
(2.27579 -0.892063 2.61492)
(2.87606 -1.087 1.60159)
(2.84812 -0.832448 1.35924)
(3.1169 -1.03909 1.13205)
(3.76892 -1.46752 0.446677)
(4.52497 -1.88487 0.102462)
(5.37127 -2.07605 0.149601)
(6.11129 -2.09438 0.276136)
(6.66206 -2.02934 0.371394)
(7.1152 -1.97812 0.496616)
(7.59166 -1.95552 0.699248)
(8.05956 -1.94172 0.897896)
(8.46696 -1.92184 1.03319)
(8.82568 -1.87774 1.11629)
(9.16789 -1.80584 1.16654)
(9.49206 -1.71333 1.18436)
(9.78888 -1.59917 1.17019)
(10.0219 -1.44368 1.1296)
(10.1876 -1.27751 1.07204)
(10.2114 -1.12861 0.977163)
(10.5469 -0.939352 0.924287)
(10.5247 -0.598583 1.00918)
(1.42737 0.305733 0.341926)
(1.65327 0.226285 0.238955)
(2.54347 -0.0785144 2.34547)
(2.90569 -0.80968 2.01504)
(3.14073 -0.97126 1.15208)
(2.80336 -0.841708 1.08877)
(3.31629 -1.22701 0.589898)
(4.19586 -1.53422 -0.0962669)
(5.02844 -1.68337 -0.541707)
(5.6975 -1.68503 -0.642209)
(6.38545 -1.59432 -0.477053)
(6.9288 -1.48239 -0.232428)
(7.38987 -1.37231 0.0354268)
(7.80841 -1.3362 0.306598)
(8.21893 -1.34636 0.559057)
(8.59417 -1.38117 0.761681)
(8.93661 -1.41647 0.91523)
(9.26999 -1.43553 1.03111)
(9.58821 -1.43379 1.10334)
(9.87161 -1.39405 1.13054)
(10.0846 -1.2977 1.12677)
(10.243 -1.18043 1.08983)
(10.2501 -1.0691 1.00377)
(10.5846 -0.915497 0.948689)
(10.4746 -0.565694 1.04605)
(1.46438 0.263752 0.313447)
(1.71072 0.0411912 0.340078)
(2.54492 -0.226046 2.4854)
(3.24974 -0.715022 1.4296)
(3.19345 -0.652469 0.815754)
(2.83237 -0.825439 0.922808)
(3.67155 -1.32474 -0.0191168)
(4.73707 -1.63098 -0.719128)
(5.69844 -1.63419 -1.11538)
(6.34204 -1.44411 -1.33748)
(6.74146 -1.15901 -1.35574)
(7.15705 -0.86076 -1.11829)
(7.68331 -0.645862 -0.735702)
(8.12735 -0.560882 -0.371085)
(8.48493 -0.567473 -0.033484)
(8.76519 -0.640231 0.263234)
(9.00687 -0.734181 0.516526)
(9.24528 -0.813415 0.721589)
(9.47831 -0.872959 0.86653)
(9.68792 -0.904453 0.952098)
(9.83419 -0.885026 0.991024)
(9.93439 -0.835681 0.984651)
(9.87736 -0.78357 0.913185)
(10.1965 -0.70349 0.86289)
(10.0344 -0.368339 1.01509)
(1.48712 0.224383 0.325129)
(1.68721 0.121952 0.26142)
(2.50246 -0.228719 2.34025)
(2.64739 -0.997577 1.48127)
(2.66623 -0.669119 0.920516)
(2.99722 -0.970043 0.423123)
(4.15328 -1.44851 -0.743461)
(5.32204 -1.60534 -1.32298)
(6.33427 -1.48242 -1.58373)
(7.03361 -1.17859 -1.80397)
(7.53819 -0.686537 -1.72159)
(7.84162 -0.299147 -1.55848)
(8.09373 -0.0289387 -1.33396)
(8.43343 0.138248 -1.0286)
(8.8314 0.205558 -0.676284)
(9.13718 0.173877 -0.326029)
(9.32481 0.0737173 0.011065)
(9.43232 -0.0546435 0.310934)
(9.49046 -0.185248 0.547557)
(9.50745 -0.296632 0.70936)
(9.46076 -0.36598 0.805578)
(9.39279 -0.387558 0.837231)
(9.17708 -0.392013 0.791742)
(9.38344 -0.349037 0.762733)
(9.15736 -0.123611 0.98131)
(1.46289 0.182632 0.371332)
(1.71823 0.312487 0.149193)
(2.5493 -0.0845585 2.0113)
(2.42663 -1.05277 1.34226)
(2.46047 -0.713212 0.927319)
(3.4397 -1.0805 -0.419922)
(4.77065 -1.49194 -1.59478)
(5.98212 -1.55419 -1.94203)
(6.92757 -1.33432 -2.00747)
(7.63155 -0.748433 -1.93736)
(8.17034 -0.0134829 -1.73655)
(8.51308 0.446438 -1.69088)
(8.73816 0.69935 -1.63294)
(8.90585 0.824179 -1.48021)
(9.09164 0.876068 -1.22628)
(9.34772 0.882956 -0.89102)
(9.58879 0.832356 -0.523676)
(9.74169 0.724243 -0.163158)
(9.77765 0.577953 0.155992)
(9.68977 0.415057 0.411235)
(9.45451 0.262869 0.586706)
(9.1471 0.160494 0.682651)
(8.69999 0.0837173 0.684185)
(8.63005 0.0393216 0.700178)
(8.15973 0.109677 0.976464)
(1.43407 0.168085 0.709067)
(1.79458 0.476295 0.087274)
(2.84541 0.12878 1.23969)
(2.62089 -0.918165 0.613805)
(2.64324 -0.67664 0.458107)
(4.00674 -1.08928 -1.41371)
(5.39241 -1.39611 -2.41839)
(6.56635 -1.41295 -2.48581)
(7.40884 -1.18113 -2.2912)
(8.12081 -0.287549 -1.75648)
(8.59263 0.501723 -1.57643)
(8.93207 1.02477 -1.62121)
(9.15583 1.32754 -1.66842)
(9.29799 1.47501 -1.63279)
(9.41118 1.52147 -1.49392)
(9.53383 1.5135 -1.26214)
(9.6769 1.47402 -0.966902)
(9.86766 1.39726 -0.630102)
(10.0137 1.27662 -0.295437)
(10.0477 1.12338 0.00312563)
(9.91089 0.942406 0.25753)
(9.59783 0.797708 0.440914)
(9.0782 0.668893 0.525058)
(8.75853 0.511657 0.607565)
(7.88395 0.39585 0.936495)
(1.28005 0.181666 1.21008)
(1.93572 0.706772 -0.45779)
(3.45321 0.497407 -0.299958)
(3.05277 -0.413013 -0.711532)
(3.02343 -0.417965 -0.336027)
(4.56108 -0.935021 -2.41208)
(5.90787 -1.17162 -3.12702)
(7.0015 -1.18822 -2.89312)
(7.77358 -0.916482 -2.31205)
(8.39651 0.0243432 -1.46491)
(8.80127 0.849458 -1.21136)
(9.11504 1.43481 -1.27106)
(9.35658 1.81122 -1.38292)
(9.52462 2.0123 -1.44465)
(9.62921 2.08361 -1.42098)
(9.70212 2.07361 -1.31061)
(9.77154 2.0162 -1.13082)
(9.87899 1.92791 -0.895764)
(10.0278 1.81662 -0.628922)
(10.1695 1.68135 -0.364008)
(10.2142 1.51767 -0.11061)
(10.112 1.3704 0.122435)
(9.80419 1.25108 0.28586)
(9.59264 1.06099 0.434991)
(8.62309 0.853028 0.799862)
(1.15077 0.177415 1.40244)
(1.95902 0.351019 -0.107493)
(3.60523 0.520513 -1.24688)
(2.74085 0.293541 -0.495331)
(3.36531 -0.0531173 -1.24673)
(4.96656 -0.652767 -3.30515)
(6.23981 -0.854869 -3.68005)
(7.23585 -0.930786 -3.15244)
(7.9796 -0.654416 -2.13141)
(8.5096 0.199611 -1.0635)
(8.8494 1.01576 -0.644551)
(9.12987 1.65052 -0.651939)
(9.38066 2.1045 -0.797224)
(9.57462 2.37731 -0.945922)
(9.70701 2.49932 -1.03573)
(9.78421 2.5095 -1.04906)
(9.82255 2.44595 -0.994086)
(9.87052 2.33904 -0.879531)
(9.95932 2.2113 -0.721693)
(10.0929 2.07341 -0.544074)
(10.214 1.91942 -0.351364)
(10.2778 1.77944 -0.138459)
(10.2232 1.70103 0.0412391)
(10.2817 1.54192 0.230324)
(9.61181 1.38888 0.598176)
(1.08361 0.130368 0.983314)
(2.0944 0.026673 -0.151839)
(2.56215 0.163438 0.63771)
(2.13792 0.678479 0.499857)
(3.63653 0.282033 -2.2755)
(5.18507 -0.287484 -4.10618)
(6.38093 -0.486233 -4.12179)
(7.316 -0.649446 -3.31188)
(8.06765 -0.48214 -1.96685)
(8.53956 0.203715 -0.638332)
(8.79956 0.962891 0.0439493)
(9.03752 1.64876 0.176299)
(9.28448 2.18941 0.032629)
(9.49384 2.54957 -0.193215)
(9.65101 2.7405 -0.395632)