/*--------------------------------*- C++ -*----------------------------------*\
| =========                 |                                                 |
| \\      /  F ield         | OpenFOAM: The Open Source CFD Toolbox           |
|  \\    /   O peration     | Version:  2306                                  |
|   \\  /    A nd           | Website:  www.openfoam.com                      |
|    \\/     M anipulation  |                                                 |
\*---------------------------------------------------------------------------*/
FoamFile
{
    version     2.0;
    format      ascii;
    arch        "LSB;label=32;scalar=64";
    class       volScalarField;
    location    "1.9";
    object      p;
}
// * * * * * * * * * * * * * * * * * * * * * * * * * * * * * * * * * * * * * //

dimensions      [0 2 -2 0 0 0 0];

internalField   nonuniform List<scalar> 
288632
(
44.8809
44.8724
44.881
44.9002
44.9276
44.962
45.0043
45.036
45.1412
45.055
45.27
45.1714
45.2457
-0.293152
-0.200996
-0.452043
-0.213023
-0.290587
-0.244061
-0.207006
-0.16976
-0.132014
-0.0941262
-0.0567017
-0.0190481
44.8745
44.8706
44.88
44.8993
44.9268
44.9612
45.0036
45.0356
45.1403
45.0546
45.269
45.1703
45.2456
-0.293729
-0.200447
-0.453273
-0.213814
-0.291482
-0.24485
-0.207663
-0.170297
-0.132431
-0.094422
-0.0568792
-0.0191081
44.8714
44.8684
44.8782
44.8976
44.925
44.9595
45.0019
45.0343
45.1384
45.0545
45.2674
45.1692
45.2455
-0.295397
-0.2038
-0.455608
-0.215853
-0.293305
-0.246431
-0.208993
-0.17138
-0.133268
-0.0950167
-0.0572347
-0.0192265
44.8673
44.8653
44.8755
44.895
44.9225
44.9569
44.9994
45.0324
45.1355
45.054
45.2645
45.1683
45.2453
-0.298085
-0.206397
-0.459011
-0.218691
-0.295994
-0.248766
-0.21097
-0.172991
-0.134514
-0.0959017
-0.0577633
-0.0194022
44.8631
44.8616
44.8721
44.8916
44.919
44.9535
44.996
45.0298
45.1315
45.0532
45.2608
45.1671
45.2447
-0.302293
-0.211025
-0.463442
-0.222626
-0.299548
-0.251846
-0.213572
-0.175111
-0.136153
-0.0970654
-0.0584582
-0.0196327
44.8586
44.8574
44.868
44.8875
44.9148
44.9493
44.9919
45.0265
45.1267
45.0522
45.2564
45.1657
45.2439
-0.307717
-0.216287
-0.468841
-0.227389
-0.303888
-0.255618
-0.216764
-0.177711
-0.138163
-0.0984923
-0.0593101
-0.0199152
44.8538
44.8528
44.8633
44.8827
44.9099
44.9443
44.9869
45.0226
45.1209
45.0512
45.2514
45.1643
45.243
-0.314309
-0.22284
-0.475161
-0.233024
-0.308974
-0.26004
-0.220501
-0.180755
-0.140517
-0.100163
-0.0603073
-0.0202459
44.8487
44.8477
44.8581
44.8773
44.9044
44.9387
44.9813
45.0181
45.1144
45.0501
45.246
45.163
45.2422
-0.321906
-0.230198
-0.482297
-0.239415
-0.314732
-0.265049
-0.224735
-0.184202
-0.143181
-0.102054
-0.0614361
-0.0206201
44.8434
44.8423
44.8525
44.8715
44.8983
44.9324
44.9751
45.0131
45.1072
45.0488
45.2405
45.1619
45.2419
-0.33037
-0.238383
-0.490166
-0.24648
-0.321082
-0.270574
-0.229404
-0.188004
-0.146119
-0.104139
-0.0626806
-0.0210327
44.8378
44.8366
44.8466
44.8653
44.8917
44.9257
44.9684
45.0076
45.0996
45.0467
45.2361
45.1613
45.2421
-0.339576
-0.247243
-0.498653
-0.254116
-0.327935
-0.276538
-0.234443
-0.192106
-0.149288
-0.106388
-0.0640229
-0.0214776
44.8321
44.8307
44.8405
44.8587
44.8848
44.9186
44.9614
45.0018
45.0917
45.0441
45.233
45.1615
45.2433
-0.349383
-0.256649
-0.507637
-0.262209
-0.335191
-0.282853
-0.239777
-0.196448
-0.152643
-0.108769
-0.0654433
-0.0219484
44.8264
44.8248
44.8342
44.852
44.8777
44.9112
44.954
44.9959
45.0836
45.0422
45.2303
45.1628
45.2458
-0.359639
-0.266454
-0.516983
-0.270637
-0.342742
-0.289424
-0.245327
-0.200965
-0.156132
-0.111244
-0.0669206
-0.022438
44.8206
44.8188
44.8278
44.8452
44.8704
44.9037
44.9465
44.9898
45.0757
45.0409
45.2286
45.1655
45.2499
-0.370194
-0.276506
-0.526547
-0.279271
-0.350472
-0.29615
-0.251007
-0.205587
-0.159703
-0.113777
-0.0684321
-0.022939
44.815
44.813
44.8215
44.8384
44.8631
44.8961
44.9391
44.9838
45.0681
45.0405
45.2281
45.1699
45.256
-0.380876
-0.286645
-0.536182
-0.287974
-0.358262
-0.302927
-0.25673
-0.210244
-0.163299
-0.116328
-0.0699542
-0.0234435
44.8096
44.8073
44.8154
44.8318
44.856
44.8886
44.9317
44.978
45.061
45.0409
45.2291
45.1763
45.2644
-0.391523
-0.296713
-0.545731
-0.296609
-0.365986
-0.309645
-0.262403
-0.21486
-0.166864
-0.118857
-0.0714626
-0.0239434
44.8045
44.8019
44.8096
44.8253
44.849
44.8814
44.9246
44.9724
45.0546
45.0422
45.2317
45.1849
45.275
-0.401953
-0.306544
-0.55504
-0.305035
-0.373519
-0.316197
-0.267935
-0.21936
-0.170339
-0.121322
-0.0729331
-0.0244307
44.7998
44.7969
44.8041
44.8193
44.8424
44.8745
44.9179
44.9673
45.0491
45.0444
45.2358
45.1956
45.2881
-0.412005
-0.315982
-0.563952
-0.313113
-0.380734
-0.322473
-0.273234
-0.22367
-0.173667
-0.123682
-0.0743412
-0.0248974
44.7955
44.7924
44.799
44.8137
44.8363
44.8681
44.9116
44.9626
45.0444
45.0475
45.2415
45.2079
45.3031
-0.421505
-0.324863
-0.572315
-0.320708
-0.387509
-0.328367
-0.278209
-0.227717
-0.176792
-0.125898
-0.075663
-0.0253354
44.7919
44.7884
44.7945
44.8086
44.8307
44.8622
44.906
44.9584
45.0406
45.0511
45.2483
45.2216
45.3195
-0.430305
-0.333069
-0.579988
-0.327696
-0.39373
-0.33378
-0.282778
-0.231433
-0.17966
-0.127932
-0.0768762
-0.0257374
44.7889
44.7851
44.7906
44.8041
44.8258
44.857
44.901
44.9548
45.0377
45.0552
45.256
45.2357
45.3365
-0.438252
-0.340415
-0.586824
-0.333945
-0.399282
-0.338616
-0.286858
-0.234751
-0.182222
-0.129748
-0.0779596
-0.0260963
44.7868
44.7824
44.7874
44.8003
44.8216
44.8526
44.8967
44.9518
45.0355
45.0593
45.2639
45.2492
45.3533
-0.445225
-0.346881
-0.592722
-0.339375
-0.404077
-0.342791
-0.29038
-0.237615
-0.184432
-0.131315
-0.0788941
-0.0264058
44.7856
44.7804
44.7848
44.7973
44.8181
44.849
44.8933
44.9495
45.0341
45.0631
45.2713
45.2616
45.3689
-0.45111
-0.352189
-0.597548
-0.343844
-0.408015
-0.346225
-0.293279
-0.239972
-0.186251
-0.132605
-0.0796632
-0.0266605
44.7855
44.7792
44.7829
44.795
44.8156
44.8463
44.8907
44.9477
45.0331
45.0663
45.2778
45.2722
45.3822
-0.455821
-0.356555
-0.60124
-0.347345
-0.411045
-0.348867
-0.295505
-0.241781
-0.187647
-0.133594
-0.0802529
-0.0268555
44.7854
44.7785
44.7817
44.7935
44.8139
44.8445
44.889
44.9466
45.0326
45.0687
45.2824
45.28
45.3925
-0.459288
-0.359373
-0.603709
-0.349701
-0.413096
-0.35065
-0.297013
-0.243007
-0.188594
-0.134265
-0.0806527
-0.0269874
44.7911
44.779
44.7812
44.7929
44.8131
44.8437
44.8883
44.9462
45.0325
45.0704
45.2856
45.284
45.3992
-0.461482
-0.361652
-0.604872
-0.35104
-0.414152
-0.351552
-0.297785
-0.243633
-0.189076
-0.134607
-0.0808553
-0.0270535
44.8738
44.8698
44.8792
44.8985
44.9258
44.9602
45.0025
45.0344
45.1391
45.0532
45.2676
45.1691
45.2445
-0.294631
-0.20219
-0.453727
-0.214554
-0.291348
-0.244858
-0.207454
-0.169963
-0.132053
-0.0940754
-0.0566289
-0.0190086
44.8675
44.8679
44.8783
44.8976
44.925
44.9594
45.0018
45.0339
45.1382
45.0539
45.263
45.1679
45.2445
-0.295174
-0.20165
-0.454976
-0.215363
-0.292259
-0.245661
-0.208122
-0.170508
-0.132476
-0.0943752
-0.0568087
-0.0190693
44.8643
44.8657
44.8764
44.8959
44.9233
44.9577
45.0001
45.0326
45.1362
45.054
45.2605
45.1668
45.2446
-0.296877
-0.205076
-0.457352
-0.217437
-0.29411
-0.247266
-0.20947
-0.171605
-0.133324
-0.0949771
-0.0571684
-0.0191891
44.8602
44.8627
44.8737
44.8932
44.9207
44.9551
44.9975
45.0306
45.1331
45.0535
45.257
45.1658
45.2444
-0.299604
-0.207724
-0.460814
-0.220324
-0.29684
-0.249636
-0.211475
-0.173238
-0.134586
-0.0958729
-0.0577033
-0.0193667
44.856
44.859
44.8702
44.8898
44.9172
44.9516
44.9941
45.0279
45.129
45.0528
45.2528
45.1644
45.2438
-0.303868
-0.212436
-0.46532
-0.224324
-0.300449
-0.252761
-0.214114
-0.175386
-0.136245
-0.0970509
-0.0584064
-0.0195999
44.8515
44.8548
44.8661
44.8857
44.913
44.9473
44.9898
45.0245
45.1239
45.0518
45.2478
45.1629
45.2429
-0.309371
-0.217797
-0.470811
-0.229169
-0.304857
-0.25659
-0.21735
-0.17802
-0.138281
-0.0984954
-0.0592686
-0.0198858
44.8467
44.8501
44.8614
44.8808
44.908
44.9422
44.9847
45.0204
45.1179
45.051
45.2418
45.1613
45.2419
-0.316058
-0.22447
-0.477242
-0.2349
-0.310023
-0.261078
-0.221141
-0.181106
-0.140665
-0.100187
-0.060278
-0.0202204
44.8416
44.845
44.8562
44.8754
44.9024
44.9365
44.9789
45.0157
45.1111
45.0494
45.236
45.1596
45.241
-0.323764
-0.231967
-0.484504
-0.241401
-0.315874
-0.266164
-0.225436
-0.184601
-0.143365
-0.102102
-0.061421
-0.0205992
44.8363
44.8395
44.8506
44.8695
44.8962
44.9301
44.9726
45.0104
45.1036
45.0467
45.2311
45.1582
45.2404
-0.332352
-0.240305
-0.492516
-0.248589
-0.322328
-0.271776
-0.230175
-0.188457
-0.146343
-0.104215
-0.0626814
-0.0210169
44.8307
44.8338
44.8446
44.8632
44.8895
44.9232
44.9656
45.0046
45.0955
45.0438
45.2264
45.1571
45.2403
-0.341693
-0.249334
-0.501158
-0.256359
-0.329295
-0.277835
-0.235289
-0.192617
-0.149556
-0.106494
-0.0640411
-0.0214674
44.825
44.8279
44.8384
44.8566
44.8825
44.916
44.9583
44.9984
45.087
45.0409
45.2222
45.1568
45.241
-0.351646
-0.25892
-0.510309
-0.264598
-0.336673
-0.284251
-0.240705
-0.197023
-0.152957
-0.108907
-0.0654804
-0.0219444
44.8192
44.822
44.8321
44.8498
44.8752
44.9084
44.9507
44.9921
45.0784
45.0384
45.2185
45.1574
45.243
-0.36206
-0.268915
-0.519831
-0.273179
-0.344354
-0.29093
-0.246342
-0.201607
-0.156497
-0.111417
-0.0669777
-0.0224405
44.8134
44.816
44.8257
44.8429
44.8678
44.9006
44.9429
44.9855
45.0699
45.0363
45.2158
45.1593
45.2465
-0.372773
-0.279162
-0.529578
-0.281971
-0.35222
-0.297768
-0.252113
-0.2063
-0.16012
-0.113986
-0.0685102
-0.0229483
44.8078
44.8101
44.8193
44.836
44.8604
44.8928
44.9351
44.979
45.0616
45.0349
45.2142
45.1629
45.2519
-0.383621
-0.289504
-0.539399
-0.290837
-0.360148
-0.30466
-0.257928
-0.211029
-0.16377
-0.116574
-0.0700538
-0.0234598
44.8024
44.8044
44.8132
44.8293
44.8531
44.8851
44.9273
44.9727
45.0539
45.0343
45.2141
45.1684
45.2595
-0.394431
-0.299771
-0.549136
-0.299634
-0.368012
-0.311495
-0.263695
-0.215717
-0.167388
-0.119139
-0.0715841
-0.0239668
44.7972
44.799
44.8072
44.8228
44.846
44.8777
44.9199
44.9666
45.0468
45.0346
45.2155
45.1758
45.2694
-0.405027
-0.309799
-0.558629
-0.30822
-0.375683
-0.318161
-0.26932
-0.22029
-0.170917
-0.121641
-0.0730762
-0.0244612
44.7925
44.7939
44.8017
44.8166
44.8392
44.8705
44.9128
44.9608
45.0405
45.0357
45.2186
45.1855
45.2816
-0.415231
-0.319427
-0.567721
-0.316454
-0.383032
-0.324548
-0.274708
-0.22467
-0.174298
-0.124038
-0.0745053
-0.0249347
44.7882
44.7894
44.7966
44.8109
44.833
44.8639
44.9061
44.9555
45.0351
45.0377
45.2231
45.1968
45.296
-0.424882
-0.328487
-0.576253
-0.324196
-0.389935
-0.330548
-0.27977
-0.228785
-0.177473
-0.126288
-0.0758472
-0.0253792
44.7846
44.7853
44.792
44.8058
44.8272
44.8578
44.9001
44.9508
45.0307
45.0403
45.2289
45.2093
45.3117
-0.433819
-0.336859
-0.584083
-0.33132
-0.396274
-0.336059
-0.284418
-0.232563
-0.180387
-0.128354
-0.0770791
-0.0257872
44.7816
44.782
44.7881
44.8012
44.8222
44.8524
44.8948
44.9467
45.0272
45.0433
45.2354
45.2223
45.3282
-0.441893
-0.344354
-0.59106
-0.337692
-0.401933
-0.340984
-0.288571
-0.235938
-0.182991
-0.130199
-0.0781794
-0.0261517
44.7794
44.7793
44.7848
44.7974
44.8179
44.8478
44.8903
44.9433
45.0245
45.0465
45.2423
45.235
45.3445
-0.448969
-0.350949
-0.59708
-0.343228
-0.406821
-0.345236
-0.292155
-0.23885
-0.185238
-0.131791
-0.0791287
-0.026466
44.7782
44.7773
44.7822
44.7943
44.8144
44.844
44.8866
44.9405
45.0225
45.0495
45.2489
45.2466
45.3596
-0.454948
-0.356362
-0.602008
-0.347786
-0.410836
-0.348734
-0.295106
-0.241248
-0.187088
-0.133102
-0.07991
-0.0267247
44.7781
44.7761
44.7803
44.792
44.8117
44.8412
44.8839
44.9385
45.0212
45.0521
45.2547
45.2564
45.3726
-0.459731
-0.360807
-0.605778
-0.351353
-0.413924
-0.351425
-0.297372
-0.243088
-0.188507
-0.134107
-0.0805092
-0.0269228
44.778
44.7754
44.7791
44.7905
44.81
44.8393
44.882
44.9371
45.0205
45.054
45.2591
45.2638
45.3825
-0.463249
-0.363682
-0.608298
-0.353755
-0.416016
-0.35324
-0.298907
-0.244336
-0.189469
-0.134789
-0.0809154
-0.0270569
44.7837
44.7759
44.7786
44.7898
44.8092
44.8385
44.8812
44.9366
45.0202
45.0549
45.2633
45.2672
45.3885
-0.465473
-0.365975
-0.609487
-0.355115
-0.417089
-0.354156
-0.299692
-0.244972
-0.189959
-0.135136
-0.0811211
-0.0271239
44.869
44.866
44.8757
44.895
44.9223
44.9565
44.9987
45.0307
45.1346
45.0501
45.263
45.1652
45.2419
-0.297955
-0.206187
-0.456776
-0.217504
-0.292617
-0.246147
-0.208103
-0.170157
-0.13196
-0.0938455
-0.0563975
-0.018895
44.8626
44.8641
44.8747
44.8941
44.9215
44.9557
44.9979
45.0302
45.1337
45.051
45.2576
45.164
45.242
-0.29851
-0.205651
-0.458057
-0.218343
-0.293554
-0.246973
-0.208789
-0.170717
-0.132393
-0.0941522
-0.0565813
-0.018957
44.8594
44.8619
44.8729
44.8923
44.9197
44.954
44.9962
45.0289
45.1315
45.0512
45.2546
45.1627
45.2422
-0.300296
-0.209175
-0.46051
-0.220487
-0.295461
-0.248623
-0.210173
-0.171842
-0.133261
-0.0947682
-0.0569491
-0.0190793
44.8553
44.8588
44.8701
44.8897
44.917
44.9512
44.9935
45.0267
45.1282
45.0508
45.2505
45.1615
45.2419
-0.30311
-0.211931
-0.464088
-0.22347
-0.298273
-0.251061
-0.212233
-0.173516
-0.134554
-0.0956853
-0.0574963
-0.0192609
44.8511
44.8551
44.8666
44.8862
44.9134
44.9476
44.9898
45.0238
45.1238
45.0499
45.2455
45.1598
45.2411
-0.30751
-0.216819
-0.468744
-0.227602
-0.301991
-0.254277
-0.214944
-0.17572
-0.136256
-0.0968916
-0.0582159
-0.0194994
44.8466
44.8508
44.8625
44.8819
44.909
44.9432
44.9853
45.0201
45.1183
45.0489
45.2395
45.1578
45.2398
-0.313197
-0.222381
-0.474424
-0.23261
-0.306535
-0.258219
-0.21827
-0.178425
-0.138343
-0.0983713
-0.0590984
-0.0197919
44.8417
44.8461
44.8577
44.877
44.9039
44.9379
44.98
45.0156
45.1117
45.0474
45.2327
45.1557
45.2383
-0.320111
-0.229298
-0.481076
-0.238533
-0.311862
-0.262841
-0.222168
-0.181593
-0.140788
-0.100105
-0.0601323
-0.0201343
44.8366
44.8409
44.8524
44.8715
44.8981
44.9319
44.9739
45.0104
45.1042
45.0444
45.2265
45.1533
45.2367
-0.328076
-0.237078
-0.488595
-0.245256
-0.317899
-0.26808
-0.226586
-0.185184
-0.143558
-0.102069
-0.0613034
-0.0205223
44.8312
44.8354
44.8467
44.8655
44.8918
44.9253
44.9671
45.0046
45.0959
45.0406
45.2204
45.1509
45.2351
-0.336954
-0.245728
-0.496893
-0.252693
-0.324562
-0.273865
-0.231463
-0.189146
-0.146616
-0.104236
-0.0625954
-0.0209502
44.8256
44.8296
44.8406
44.859
44.8849
44.9181
44.9597
44.9981
45.087
45.0366
45.2141
45.1487
45.2338
-0.346614
-0.255099
-0.505849
-0.260735
-0.331758
-0.280114
-0.23673
-0.193425
-0.149916
-0.106575
-0.0639902
-0.0214121
44.8198
44.8237
44.8343
44.8523
44.8777
44.9104
44.9519
44.9912
45.0775
45.0325
45.2079
45.1469
45.2332
-0.35691
-0.265052
-0.515336
-0.269265
-0.339384
-0.286735
-0.24231
-0.197958
-0.153412
-0.109052
-0.0654673
-0.0219013
44.814
44.8176
44.8279
44.8453
44.8701
44.9025
44.9437
44.984
45.0677
45.0285
45.2021
45.1457
45.2334
-0.367687
-0.275434
-0.525214
-0.278155
-0.347327
-0.29363
-0.248121
-0.202678
-0.157052
-0.111631
-0.0670048
-0.0224105
44.8081
44.8116
44.8214
44.8382
44.8625
44.8943
44.9352
44.9766
45.0579
45.0248
45.1969
45.1456
45.2348
-0.378777
-0.286082
-0.535331
-0.287267
-0.355466
-0.300695
-0.254075
-0.207513
-0.16078
-0.114273
-0.0685793
-0.0229319
44.8024
44.8056
44.8149
44.8312
44.8547
44.886
44.9267
44.969
45.0483
45.0214
45.1927
45.1469
45.2379
-0.390009
-0.29683
-0.545529
-0.29646
-0.363674
-0.307819
-0.260077
-0.212387
-0.164538
-0.116935
-0.0701662
-0.0234574
44.7969
44.7998
44.8086
44.8242
44.8471
44.8778
44.9182
44.9615
45.0391
45.0187
45.1897
45.1499
45.2428
-0.401201
-0.307506
-0.555645
-0.305586
-0.37182
-0.314887
-0.266032
-0.217222
-0.168266
-0.119575
-0.0717403
-0.0239787
44.7917
44.7943
44.8026
44.8176
44.8397
44.8699
44.91
44.9542
45.0305
45.0168
45.1882
45.1547
45.2499
-0.412174
-0.317937
-0.565513
-0.314497
-0.37977
-0.321785
-0.271844
-0.221941
-0.171904
-0.122152
-0.0732759
-0.0244872
44.7869
44.7892
44.797
44.8112
44.8327
44.8623
44.9021
44.9473
45.0227
45.0156
45.1883
45.1616
45.2592
-0.422747
-0.327953
-0.574967
-0.323045
-0.387391
-0.328398
-0.277415
-0.226464
-0.17539
-0.124621
-0.0747474
-0.0249744
44.7826
44.7846
44.7918
44.8053
44.8261
44.8551
44.8948
44.9408
45.0158
45.0153
45.1899
45.1703
45.2705
-0.432749
-0.337382
-0.583843
-0.331086
-0.394552
-0.334613
-0.282651
-0.230714
-0.178665
-0.126941
-0.0761298
-0.0254322
44.7789
44.7805
44.7871
44.8
44.8201
44.8486
44.888
44.935
45.0099
45.0157
45.1928
45.1799
45.2834
-0.442012
-0.346094
-0.591991
-0.338486
-0.401131
-0.340323
-0.28746
-0.234617
-0.181674
-0.129071
-0.0773993
-0.0258525
44.7759
44.7771
44.7831
44.7953
44.8148
44.8428
44.8821
44.9298
45.005
45.0167
45.1968
45.19
45.2971
-0.450379
-0.353897
-0.599254
-0.345106
-0.407006
-0.345427
-0.291758
-0.238106
-0.184363
-0.130975
-0.0785339
-0.0262281
44.7737
44.7743
44.7797
44.7914
44.8103
44.8378
44.877
44.9254
45.0011
45.018
45.2012
45.2
45.3109
-0.457717
-0.360756
-0.605523
-0.350859
-0.412083
-0.349836
-0.29547
-0.241118
-0.186683
-0.132618
-0.079513
-0.0265521
44.7724
44.7723
44.777
44.7882
44.8066
44.8338
44.8728
44.9219
44.9981
45.0195
45.2058
45.2096
45.3238
-0.46391
-0.366394
-0.610656
-0.355596
-0.416254
-0.353463
-0.298526
-0.243598
-0.188594
-0.133971
-0.0803191
-0.0268189
44.7723
44.7711
44.7751
44.7858
44.8038
44.8307
44.8696
44.9192
44.996
45.0209
45.2099
45.2176
45.3349
-0.468865
-0.371012
-0.614586
-0.3593
-0.419463
-0.356254
-0.300873
-0.245502
-0.190061
-0.135009
-0.0809375
-0.0270233
44.7722
44.7704
44.7738
44.7842
44.802
44.8287
44.8675
44.9174
44.9947
45.0219
45.2131
45.2237
45.3433
-0.472509
-0.374008
-0.617215
-0.361797
-0.421635
-0.358138
-0.302464
-0.246794
-0.191056
-0.135713
-0.0813568
-0.0271617
44.7778
44.7709
44.7734
44.7835
44.8011
44.8278
44.8666
44.9167
44.9941
45.0223
45.2165
45.2268
45.3481
-0.474806
-0.37638
-0.618462
-0.363204
-0.422752
-0.359089
-0.303276
-0.247452
-0.191562
-0.136072
-0.0815694
-0.027231
44.8625
44.8605
44.8705
44.8898
44.9169
44.9509
44.9929
45.0252
45.1279
45.0452
45.2557
45.16
45.2373
-0.303861
-0.211876
-0.461055
-0.221846
-0.294392
-0.247925
-0.208941
-0.170331
-0.131722
-0.0934259
-0.0560004
-0.0187052
44.8562
44.8586
44.8695
44.8889
44.916
44.9501
44.9921
45.0246
45.1268
45.0462
45.2497
45.1587
45.2375
-0.304469
-0.211362
-0.462393
-0.222731
-0.295368
-0.248785
-0.209654
-0.170911
-0.13217
-0.0937429
-0.05619
-0.018769
44.853
44.8563
44.8676
44.887
44.9142
44.9482
44.9902
45.0231
45.1244
45.0464
45.2462
45.1571
45.2376
-0.30639
-0.215054
-0.464967
-0.224981
-0.297359
-0.250502
-0.211093
-0.172078
-0.13307
-0.0943799
-0.0565699
-0.0188951
44.8489
44.8532
44.8648
44.8843
44.9114
44.9454
44.9873
45.0207
45.1208
45.0458
45.2413
45.1555
45.2371
-0.309359
-0.217974
-0.468717
-0.228105
-0.300292
-0.253043
-0.213234
-0.173816
-0.134409
-0.0953286
-0.0571353
-0.0190826
44.8446
44.8494
44.8613
44.8807
44.9077
44.9416
44.9834
45.0175
45.1158
45.0447
45.2353
45.1533
45.2358
-0.313975
-0.223132
-0.473603
-0.232439
-0.304176
-0.256395
-0.216053
-0.176103
-0.136172
-0.0965772
-0.0578794
-0.019329
44.84
44.8451
44.857
44.8764
44.9032
44.9369
44.9786
45.0133
45.1097
45.0433
45.228
45.1507
45.2339
-0.319961
-0.229001
-0.479566
-0.237693
-0.308924
-0.260506
-0.219515
-0.178912
-0.138336
-0.0981096
-0.0587926
-0.0196313
44.8351
44.8403
44.8522
44.8713
44.8978
44.9313
44.9729
45.0083
45.1023
45.0404
45.2207
45.1476
45.2315
-0.327232
-0.236291
-0.486556
-0.243908
-0.314496
-0.26533
-0.223574
-0.182205
-0.140873
-0.099906
-0.0598629
-0.0199856
44.8299
44.8351
44.8468
44.8656
44.8918
44.925
44.9663
45.0024
45.0939
45.0358
45.2134
45.1439
45.2285
-0.335613
-0.244501
-0.494464
-0.250968
-0.320813
-0.270802
-0.228177
-0.185939
-0.14375
-0.101942
-0.0610762
-0.0203872
44.8245
44.8295
44.841
44.8594
44.8852
44.9179
44.9589
44.9957
45.0845
45.0307
45.2053
45.1399
45.2253
-0.344956
-0.253628
-0.503196
-0.258781
-0.327792
-0.276847
-0.233263
-0.190063
-0.146926
-0.104191
-0.0624158
-0.0208305
44.8188
44.8236
44.8348
44.8528
44.878
44.9103
44.9508
44.9883
45.0742
45.0251
45.1966
45.1355
45.2218
-0.355129
-0.263521
-0.51263
-0.267236
-0.335336
-0.283383
-0.238759
-0.19452
-0.150359
-0.10662
-0.063863
-0.0213094
44.8129
44.8176
44.8283
44.8458
44.8704
44.9021
44.9422
44.9803
45.0632
45.019
45.1875
45.1311
45.2184
-0.365973
-0.274035
-0.52263
-0.27621
-0.343337
-0.290314
-0.244588
-0.199245
-0.153997
-0.109196
-0.0653969
-0.021817
44.807
44.8114
44.8217
44.8386
44.8625
44.8936
44.9331
44.9718
45.0516
45.0126
45.1783
45.1268
45.2152
-0.377332
-0.285007
-0.53305
-0.285569
-0.351677
-0.297538
-0.250663
-0.204169
-0.157788
-0.111879
-0.066995
-0.0223458
44.8012
44.8053
44.815
44.8313
44.8544
44.8847
44.9237
44.9629
45.0399
45.0061
45.1692
45.123
45.2127
-0.389026
-0.296268
-0.543731
-0.295169
-0.360231
-0.304945
-0.256891
-0.209218
-0.161675
-0.114629
-0.0686328
-0.0228878
44.7954
44.7992
44.8084
44.8239
44.8463
44.8758
44.9141
44.9537
45.0281
44.9997
45.1607
45.1202
45.2112
-0.400874
-0.30764
-0.554506
-0.30486
-0.368865
-0.312421
-0.263177
-0.214312
-0.165596
-0.117403
-0.0702851
-0.0234345
44.7898
44.7933
44.802
44.8167
44.8382
44.8669
44.9045
44.9445
45.0165
44.9936
45.1531
45.1188
45.211
-0.412686
-0.318943
-0.565201
-0.314487
-0.37744
-0.319845
-0.269419
-0.21937
-0.169489
-0.120157
-0.0719253
-0.0239773
44.7845
44.7877
44.7958
44.8098
44.8304
44.8583
44.8952
44.9355
45.0055
44.9881
45.1468
45.1191
45.2127
-0.424273
-0.329989
-0.575641
-0.323893
-0.385815
-0.327095
-0.275515
-0.22431
-0.173291
-0.122846
-0.0735267
-0.0245071
44.7796
44.7825
44.79
44.8032
44.8229
44.8499
44.8861
44.9267
44.9952
44.9833
45.1419
45.121
45.2163
-0.435437
-0.340602
-0.58565
-0.332922
-0.393851
-0.334051
-0.281362
-0.229049
-0.176937
-0.125425
-0.0750623
-0.0250152
44.7753
44.7778
44.7846
44.7971
44.8159
44.8421
44.8776
44.9184
44.9859
44.9793
45.1386
45.1238
45.2219
-0.446005
-0.350595
-0.595052
-0.341418
-0.401406
-0.340593
-0.286862
-0.233504
-0.180366
-0.12785
-0.076506
-0.0254929
44.7715
44.7736
44.7798
44.7915
44.8095
44.8349
44.8698
44.9108
44.9776
44.9762
45.1368
45.1281
45.2291
-0.45579
-0.359829
-0.603688
-0.349241
-0.40835
-0.346606
-0.291917
-0.2376
-0.183517
-0.130078
-0.0778329
-0.0259318
44.7684
44.7701
44.7757
44.7866
44.8038
44.8285
44.8629
44.9041
44.9705
44.9739
45.1363
45.1333
45.2373
-0.464629
-0.368101
-0.61139
-0.356242
-0.414556
-0.351984
-0.296438
-0.241262
-0.186335
-0.132071
-0.0790192
-0.0263243
44.7662
44.7673
44.7722
44.7824
44.799
44.823
44.8569
44.8983
44.9646
44.9723
45.1367
45.1387
45.2459
-0.472382
-0.375367
-0.61804
-0.362325
-0.419921
-0.356633
-0.300343
-0.244425
-0.188768
-0.133791
-0.0800436
-0.0266631
44.7649
44.7652
44.7694
44.7791
44.795
44.8185
44.852
44.8935
44.9599
44.9712
45.1376
45.144
45.2542
-0.478922
-0.381343
-0.623487
-0.367335
-0.42433
-0.360457
-0.303559
-0.247031
-0.190772
-0.135209
-0.0808873
-0.0269421
44.7647
44.764
44.7674
44.7766
44.792
44.8151
44.8483
44.8899
44.9564
44.9706
45.1387
45.1484
45.2612
-0.48415
-0.386218
-0.627662
-0.371251
-0.427724
-0.363401
-0.306031
-0.249032
-0.192311
-0.136297
-0.081535
-0.0271561
44.7646
44.7632
44.7661
44.7749
44.7901
44.8128
44.8458
44.8875
44.954
44.9703
45.1396
45.1518
45.2664
-0.487989
-0.389394
-0.630453
-0.373892
-0.430022
-0.365389
-0.307706
-0.250389
-0.193355
-0.137035
-0.0819742
-0.027301
44.7701
44.7638
44.7656
44.7742
44.7891
44.8118
44.8446
44.8864
44.9529
44.9704
45.1408
45.1538
45.2692
-0.490394
-0.391855
-0.631784
-0.375368
-0.431203
-0.366392
-0.308561
-0.251081
-0.193887
-0.137411
-0.0821972
-0.0273738
44.8551
44.8536
44.8637
44.8829
44.9098
44.9435
44.9852
45.0177
45.1189
45.0386
45.2462
45.1529
45.2309
-0.312037
-0.219596
-0.46661
-0.227607
-0.296667
-0.250137
-0.209915
-0.170436
-0.131301
-0.0927888
-0.0554212
-0.018434
44.8488
44.8517
44.8627
44.882
44.9089
44.9426
44.9843
45.017
45.1177
45.0396
45.2398
45.1514
45.231
-0.312724
-0.219113
-0.468023
-0.22855
-0.297695
-0.251042
-0.210664
-0.171043
-0.131769
-0.0931192
-0.0556183
-0.0185001
44.8456
44.8494
44.8608
44.8801
44.9069
44.9406
44.9823
45.0154
45.115
45.0396
45.2355
45.1496
45.2309
-0.314854
-0.22303
-0.470757
-0.230943
-0.299798
-0.252851
-0.212175
-0.172266
-0.13271
-0.0937841
-0.0560141
-0.0186313
44.8414
44.8462
44.858
44.8772
44.904
44.9376
44.9791
45.0127
45.1109
45.0389
45.2297
45.1475
45.23
-0.318033
-0.22617
-0.474739
-0.23426
-0.302894
-0.255528
-0.214424
-0.174087
-0.134111
-0.0947747
-0.0566038
-0.0188265
44.8371
44.8424
44.8543
44.8735
44.9001
44.9336
44.9749
45.009
45.1053
45.0376
45.2224
45.1446
45.2281
-0.322938
-0.231697
-0.479935
-0.238865
-0.306999
-0.259063
-0.217389
-0.176487
-0.135956
-0.0960793
-0.0573804
-0.0190834
44.8325
44.838
44.85
44.869
44.8954
44.9286
44.9697
45.0042
45.0983
45.0348
45.2143
45.141
45.2252
-0.329338
-0.237983
-0.486281
-0.244451
-0.312022
-0.263401
-0.221031
-0.179434
-0.138222
-0.0976818
-0.0583341
-0.0193988
44.8275
44.8331
44.845
44.8638
44.8898
44.9226
44.9634
44.9985
45.0899
45.03
45.206
45.1365
45.2213
-0.337117
-0.245779
-0.493729
-0.251061
-0.317922
-0.268495
-0.225305
-0.182893
-0.140882
-0.0995617
-0.0594529
-0.0197687
44.8223
44.8278
44.8395
44.8579
44.8835
44.9158
44.9561
44.9917
45.0802
45.024
45.1966
45.131
45.2165
-0.346077
-0.254573
-0.502164
-0.258576
-0.324619
-0.274278
-0.230157
-0.186818
-0.1439
-0.101695
-0.0607223
-0.0201884
44.8167
44.8221
44.8335
44.8515
44.8765
44.9083
44.948
44.9839
45.0693
45.017
45.1858
45.1245
45.2106
-0.356071
-0.26435
-0.511486
-0.266899
-0.332024
-0.280674
-0.235522
-0.191158
-0.147235
-0.104052
-0.0621253
-0.0206522
44.811
44.8161
44.8271
44.8446
44.8689
44.9
44.939
44.9753
45.0572
45.0091
45.1738
45.117
45.2039
-0.366953
-0.274956
-0.521568
-0.275914
-0.340037
-0.287596
-0.241327
-0.195853
-0.150844
-0.106602
-0.0636425
-0.0211537
44.805
44.8099
44.8205
44.8373
44.8609
44.8911
44.9293
44.9657
45.0441
45.0002
45.1607
45.1086
45.1961
-0.378567
-0.286233
-0.532266
-0.28549
-0.348545
-0.294944
-0.247489
-0.200837
-0.154673
-0.109308
-0.0652525
-0.021686
44.799
44.8037
44.8137
44.8298
44.8525
44.8818
44.9191
44.9555
45.0302
44.9904
45.1467
45.0995
45.1877
-0.390736
-0.298012
-0.543425
-0.295486
-0.357424
-0.302612
-0.253919
-0.206037
-0.158668
-0.112131
-0.0669316
-0.022241
44.793
44.7974
44.8068
44.8222
44.8439
44.8722
44.9084
44.9446
45.0157
44.98
45.132
45.0901
45.1787
-0.403272
-0.31011
-0.554874
-0.30575
-0.36654
-0.310484
-0.26052
-0.211373
-0.162768
-0.115027
-0.0686545
-0.0228106
44.7872
44.7912
44.8
44.8145
44.8352
44.8624
44.8974
44.9333
45.0008
44.9692
45.1173
45.081
45.1696
-0.415982
-0.322336
-0.566435
-0.316119
-0.375751
-0.318437
-0.267188
-0.216764
-0.166909
-0.117952
-0.0703945
-0.0233857
44.7815
44.7851
44.7934
44.807
44.8266
44.8526
44.8864
44.9217
44.986
44.9582
45.1028
45.0726
45.1611
-0.428663
-0.334494
-0.577922
-0.32643
-0.38491
-0.326343
-0.273818
-0.222123
-0.171025
-0.120858
-0.0721236
-0.0239573
44.7761
44.7794
44.787
44.7997
44.8182
44.843
44.8755
44.9102
44.9714
44.9476
45.0892
45.0646
45.1536
-0.441104
-0.346385
-0.589145
-0.336511
-0.393865
-0.334072
-0.280299
-0.227363
-0.175048
-0.1237
-0.0738136
-0.0245159
44.7711
44.7741
44.781
44.7927
44.8101
44.8337
44.8649
44.899
44.9575
44.9375
45.077
45.0575
45.1476
-0.453101
-0.357815
-0.599912
-0.346195
-0.402463
-0.341494
-0.286522
-0.232393
-0.178911
-0.126427
-0.0754359
-0.0250522
44.7667
44.7692
44.7754
44.7863
44.8026
44.8249
44.8549
44.8883
44.9446
44.9282
45.0663
45.0516
45.1432
-0.464452
-0.368582
-0.610035
-0.355314
-0.410556
-0.34848
-0.29238
-0.237128
-0.182547
-0.128994
-0.0769625
-0.0255568
44.7628
44.765
44.7704
44.7804
44.7957
44.8169
44.8457
44.8785
44.933
44.9198
45.0574
45.0472
45.1404
-0.47497
-0.378529
-0.619339
-0.363714
-0.418
-0.354907
-0.29777
-0.241483
-0.185891
-0.131355
-0.0783666
-0.0260208
44.7597
44.7613
44.7661
44.7752
44.7895
44.8097
44.8374
44.8696
44.9227
44.9126
45.05
45.0437
45.1389
-0.484471
-0.387445
-0.627642
-0.371235
-0.424657
-0.360659
-0.302592
-0.245381
-0.188883
-0.133468
-0.079623
-0.0264361
44.7574
44.7585
44.7625
44.7708
44.7842
44.8035
44.8303
44.8618
44.9139
44.9065
45.044
45.041
45.1382
-0.492797
-0.395267
-0.634815
-0.37777
-0.430415
-0.365634
-0.306761
-0.24875
-0.191469
-0.135293
-0.0807086
-0.0267949
44.756
44.7563
44.7596
44.7673
44.7799
44.7984
44.8244
44.8555
44.9068
44.9016
45.0393
45.0388
45.1377
-0.499819
-0.401707
-0.640693
-0.383154
-0.43515
-0.369728
-0.310197
-0.251526
-0.193601
-0.136798
-0.0816035
-0.0270905
44.7558
44.755
44.7575
44.7646
44.7767
44.7945
44.8199
44.8506
44.9012
44.898
45.0357
45.0367
45.1371
-0.505429
-0.406934
-0.645201
-0.387358
-0.438796
-0.372881
-0.312837
-0.253659
-0.195238
-0.137954
-0.0822907
-0.0273175
44.7556
44.7542
44.7562
44.7628
44.7745
44.7919
44.8169
44.8473
44.8975
44.8956
45.0328
45.035
45.136
-0.509542
-0.410357
-0.648218
-0.390196
-0.441265
-0.37501
-0.314627
-0.255106
-0.196349
-0.138738
-0.0827571
-0.0274713
44.7612
44.7548
44.7556
44.762
44.7735
44.7907
44.8155
44.8457
44.8956
44.8948
45.0318
45.0334
45.1349
-0.512096
-0.412941
-0.649665
-0.39177
-0.442534
-0.376085
-0.315541
-0.255844
-0.196914
-0.139137
-0.0829942
-0.0275487
44.8467
44.8453
44.8555
44.8744
44.9009
44.9343
44.9756
45.0084
45.1077
45.0303
45.2345
45.1439
45.2225
-0.322509
-0.229355
-0.473404
-0.234804
-0.299432
-0.252707
-0.210953
-0.170409
-0.130646
-0.091897
-0.0546376
-0.0180739
44.8403
44.8435
44.8545
44.8735
44.9
44.9334
44.9746
45.0076
45.1063
45.0313
45.2275
45.1423
45.2226
-0.323294
-0.228926
-0.474911
-0.235815
-0.300523
-0.253669
-0.211746
-0.17105
-0.131138
-0.0922441
-0.054844
-0.0181428
44.8371
44.8411
44.8525
44.8715
44.898
44.9312
44.9724
45.0057
45.1033
45.0312
45.2225
45.1401
45.2222
-0.325731
-0.233128
-0.477851
-0.238391
-0.302768
-0.255591
-0.213347
-0.172342
-0.13213
-0.0929433
-0.0552595
-0.0182803
44.8329
44.8379
44.8496
44.8686
44.8949
44.928
44.969
45.0026
45.0986
45.0303
45.2155
45.1374
45.2207
-0.329183
-0.236529
-0.48212
-0.241947
-0.306067
-0.258439
-0.215732
-0.174267
-0.133607
-0.093986
-0.0558792
-0.0184851
44.8285
44.834
44.8458
44.8647
44.8908
44.9237
44.9644
44.9984
45.0922
45.0278
45.2073
45.1337
45.2179
-0.334439
-0.242535
-0.487712
-0.246894
-0.310449
-0.262202
-0.218877
-0.176805
-0.135554
-0.0953602
-0.056696
-0.0187549
44.8239
44.8295
44.8414
44.8601
44.8858
44.9183
44.9586
44.993