/*--------------------------------*- C++ -*----------------------------------*\
| =========                 |                                                 |
| \\      /  F ield         | OpenFOAM: The Open Source CFD Toolbox           |
|  \\    /   O peration     | Version:  2306                                  |
|   \\  /    A nd           | Website:  www.openfoam.com                      |
|    \\/     M anipulation  |                                                 |
\*---------------------------------------------------------------------------*/
FoamFile
{
    version     2.0;
    format      ascii;
    arch        "LSB;label=32;scalar=64";
    class       volScalarField;
    location    "2.9";
    object      p;
}
// * * * * * * * * * * * * * * * * * * * * * * * * * * * * * * * * * * * * * //

dimensions      [0 2 -2 0 0 0 0];

internalField   nonuniform List<scalar> 
288632
(
54.3983
54.3897
54.3995
54.4207
54.4504
54.4872
54.5335
54.5633
54.6524
54.6302
54.7547
54.7345
54.781
-1.02195
-0.931846
-1.04845
-0.822851
-0.831477
-0.70287
-0.603529
-0.497466
-0.388485
-0.277978
-0.167114
-0.0558509
54.3915
54.388
54.3987
54.4199
54.4498
54.4865
54.533
54.563
54.652
54.6305
54.754
54.7338
54.7812
-1.02255
-0.932611
-1.04997
-0.823967
-0.832619
-0.703881
-0.604368
-0.498157
-0.389021
-0.27836
-0.167343
-0.055928
54.3889
54.3861
54.3972
54.4184
54.4483
54.4851
54.5316
54.5622
54.6509
54.631
54.7532
54.7336
54.7819
-1.02479
-0.93547
-1.05289
-0.82649
-0.834964
-0.705907
-0.606081
-0.499557
-0.390107
-0.279132
-0.167806
-0.056082
54.385
54.3833
54.3948
54.4162
54.4461
54.483
54.5296
54.5608
54.6491
54.6313
54.7517
54.734
54.7826
-1.02882
-0.939592
-1.0572
-0.830233
-0.838448
-0.708913
-0.608633
-0.501644
-0.391725
-0.280284
-0.168495
-0.0563112
54.3813
54.3801
54.3918
54.4133
54.4432
54.4801
54.5268
54.5589
54.6468
54.6316
54.75
54.7343
54.7834
-1.03443
-0.945332
-1.06287
-0.835231
-0.843044
-0.712872
-0.611994
-0.50439
-0.393855
-0.2818
-0.169401
-0.0566126
54.3773
54.3765
54.3883
54.4098
54.4396
54.4765
54.5233
54.5565
54.6439
54.6319
54.7479
54.7348
54.7843
-1.04152
-0.952335
-1.06979
-0.841355
-0.848666
-0.717724
-0.616116
-0.507759
-0.396466
-0.283658
-0.170513
-0.0569822
54.3731
54.3725
54.3843
54.4057
54.4354
54.4724
54.5192
54.5536
54.6405
54.6322
54.7456
54.7356
54.7855
-1.04996
-0.960652
-1.07788
-0.848554
-0.855249
-0.723405
-0.620943
-0.511703
-0.399525
-0.285835
-0.171816
-0.057415
54.3688
54.3681
54.3799
54.4012
54.4308
54.4676
54.5146
54.5503
54.6367
54.6319
54.7439
54.7367
54.787
-1.05963
-0.970057
-1.087
-0.856705
-0.862694
-0.729835
-0.626405
-0.516168
-0.402987
-0.2883
-0.17329
-0.0579051
54.3642
54.3636
54.3752
54.3962
54.4256
54.4624
54.5095
54.5465
54.6326
54.6314
54.7428
54.7381
54.789
-1.07037
-0.980456
-1.09705
-0.865695
-0.870893
-0.736922
-0.632425
-0.521089
-0.406804
-0.291017
-0.174916
-0.0584454
54.3596
54.3588
54.3702
54.391
54.4201
54.4568
54.5039
54.5425
54.6282
54.6308
54.742
54.7402
54.7918
-1.08201
-0.991669
-1.10786
-0.875387
-0.879725
-0.744561
-0.638916
-0.526395
-0.41092
-0.293948
-0.17667
-0.0590283
54.3548
54.3539
54.365
54.3855
54.4143
54.4509
54.4981
54.5382
54.6236
54.6304
54.7418
54.7431
54.7956
-1.09435
-1.00353
-1.11927
-0.885634
-0.889059
-0.752638
-0.64578
-0.532009
-0.415275
-0.297048
-0.178525
-0.059645
54.35
54.3489
54.3598
54.3799
54.4084
54.4448
54.4921
54.5338
54.6191
54.6305
54.7423
54.747
54.8006
-1.10722
-1.01584
-1.13111
-0.896279
-0.898752
-0.76103
-0.652913
-0.537843
-0.419802
-0.300272
-0.180455
-0.0602865
54.3453
54.344
54.3545
54.3742
54.4023
54.4386
54.486
54.5293
54.6145
54.6309
54.7437
54.7522
54.8072
-1.12041
-1.02842
-1.14318
-0.907154
-0.908654
-0.769607
-0.660207
-0.54381
-0.424433
-0.30357
-0.182429
-0.0609429
54.3406
54.3391
54.3493
54.3686
54.3963
54.4324
54.4799
54.5249
54.6102
54.6319
54.7461
54.7588
54.8154
-1.13371
-1.04105
-1.15531
-0.918087
-0.91861
-0.778235
-0.667545
-0.549816
-0.429095
-0.306891
-0.184417
-0.0616038
54.3362
54.3345
54.3442
54.3631
54.3904
54.4263
54.4739
54.5207
54.6063
54.6334
54.7497
54.767
54.8254
-1.1469
-1.05355
-1.1673
-0.928904
-0.928459
-0.786775
-0.674811
-0.555764
-0.433712
-0.31018
-0.186386
-0.0622587
54.332
54.3301
54.3394
54.3578
54.3847
54.4204
54.4682
54.5168
54.6027
54.6355
54.7546
54.7767
54.8373
-1.15978
-1.06571
-1.17894
-0.939431
-0.938042
-0.795089
-0.681887
-0.561557
-0.438211
-0.313386
-0.188305
-0.0628971
54.3282
54.326
54.3349
54.3529
54.3793
54.4148
54.4628
54.5133
54.5996
54.6382
54.7606
54.788
54.8509
-1.17214
-1.07733
-1.19006
-0.949497
-0.947202
-0.80304
-0.688656
-0.567101
-0.442517
-0.316454
-0.190143
-0.0635082
54.3248
54.3223
54.3308
54.3483
54.3743
54.4097
54.4579
54.5101
54.597
54.6413
54.7678
54.8002
54.8659
-1.18377
-1.08823
-1.20046
-0.958933
-0.955785
-0.810496
-0.695005
-0.572302
-0.446557
-0.319334
-0.191867
-0.0640819
54.3219
54.3192
54.3272
54.3442
54.3698
54.405
54.4534
54.5074
54.595
54.6448
54.7756
54.8129
54.8818
-1.1945
-1.09824
-1.20998
-0.96759
-0.963648
-0.817332
-0.700826
-0.577072
-0.450263
-0.321975
-0.19345
-0.0646083
54.3197
54.3165
54.3241
54.3406
54.3659
54.4009
54.4496
54.5051
54.5935
54.6484
54.7838
54.8258
54.898
-1.20414
-1.10718
-1.21844
-0.975312
-0.970655
-0.82343
-0.706021
-0.581329
-0.453571
-0.324334
-0.194862
-0.0650782
54.3182
54.3144
54.3214
54.3375
54.3625
54.3974
54.4463
54.5033
54.5924
54.6519
54.7918
54.8382
54.9136
-1.21256
-1.11495
-1.22573
-0.981992
-0.976695
-0.828688
-0.710499
-0.584999
-0.456424
-0.326367
-0.19608
-0.0654834
54.3174
54.313
54.3194
54.3351
54.3598
54.3946
54.4437
54.5019
54.5917
54.6551
54.7991
54.8494
54.9278
-1.21962
-1.12136
-1.23168
-0.987487
-0.98165
-0.833008
-0.714181
-0.588018
-0.45877
-0.32804
-0.197082
-0.0658166
54.3184
54.3121
54.3179
54.3333
54.3577
54.3925
54.4417
54.5009
54.5913
54.6577
54.8052
54.8588
54.9398
-1.22522
-1.12646
-1.23624
-0.991746
-0.985457
-0.836324
-0.717006
-0.590333
-0.46057
-0.329323
-0.197851
-0.0660719
54.318
54.3114
54.3169
54.332
54.3563
54.3911
54.4404
54.5002
54.5911
54.6596
54.8095
54.8657
54.9488
-1.22927
-1.12983
-1.2393
-0.994635
-0.988032
-0.838561
-0.718921
-0.591902
-0.461789
-0.330193
-0.198371
-0.0662446
54.3231
54.312
54.3165
54.3316
54.3557
54.3905
54.4398
54.5
54.5911
54.6609
54.8124
54.869
54.9545
-1.23169
-1.13221
-1.2408
-0.996221
-0.989361
-0.839687
-0.719903
-0.592703
-0.46241
-0.330635
-0.198635
-0.0663312
54.3905
54.3868
54.3975
54.4187
54.4484
54.4851
54.5314
54.5613
54.6502
54.6286
54.7519
54.7321
54.7798
-1.02527
-0.935257
-1.052
-0.825679
-0.833423
-0.704544
-0.604517
-0.498027
-0.388739
-0.278043
-0.167095
-0.0558239
54.3838
54.3849
54.3969
54.418
54.4478
54.4845
54.5309
54.5611
54.6497
54.63
54.7477
54.7314
54.7802
-1.02582
-0.936048
-1.05355
-0.82682
-0.834588
-0.705573
-0.60537
-0.498729
-0.389283
-0.27843
-0.167327
-0.055902
54.3814
54.3829
54.3952
54.4165
54.4463
54.4831
54.5295
54.5602
54.6485
54.6307
54.7462
54.7312
54.781
-1.0281
-0.938961
-1.05653
-0.829386
-0.836969
-0.70763
-0.607107
-0.500147
-0.390383
-0.279213
-0.167795
-0.0560578
54.3775
54.3802
54.3928
54.4142
54.4441
54.4809
54.5274
54.5588
54.6467
54.6311
54.7442
54.7314
54.7819
-1.03219
-0.943164
-1.06092
-0.833194
-0.840508
-0.710682
-0.609696
-0.502262
-0.392022
-0.280379
-0.168492
-0.0562898
54.3737
54.3771
54.3898
54.4112
54.4411
54.478
54.5245
54.5568
54.6442
54.6312
54.7422
54.7317
54.7826
-1.03788
-0.949008
-1.06669
-0.838276
-0.845176
-0.714701
-0.613105
-0.505046
-0.39418
-0.281914
-0.16941
-0.0565949
54.3697
54.3735
54.3862
54.4077
54.4375
54.4743
54.521
54.5542
54.6412
54.6312
54.7401
54.7321
54.7835
-1.04507
-0.95614
-1.07372
-0.844504
-0.850887
-0.719626
-0.617287
-0.508461
-0.396826
-0.283797
-0.170537
-0.0569691
54.3655
54.3695
54.3822
54.4036
54.4333
54.4701
54.5168
54.5512
54.6376
54.6308
54.738
54.7326
54.7845
-1.05364
-0.96461
-1.08196
-0.851825
-0.857576
-0.725395
-0.622184
-0.512461
-0.399926
-0.286002
-0.171856
-0.0574075
54.3611
54.3652
54.3778
54.399
54.4285
54.4652
54.512
54.5476
54.6335
54.6301
54.7361
54.7334
54.7858
-1.06345
-0.974187
-1.09125
-0.860116
-0.865141
-0.731926
-0.627727
-0.516989
-0.403436
-0.288499
-0.17335
-0.0579039
54.3566
54.3606
54.373
54.394
54.4233
54.4599
54.5067
54.5436
54.629
54.6291
54.7345
54.7345
54.7877
-1.07434
-0.984777
-1.10147
-0.869261
-0.873475
-0.739124
-0.633838
-0.521982
-0.407306
-0.291254
-0.174997
-0.0584514
54.3519
54.3558
54.368
54.3887
54.4177
54.4542
54.501
54.5393
54.6243
54.6281
54.7332
54.7362
54.7902
-1.08614
-0.996198
-1.11248
-0.879122
-0.882455
-0.746886
-0.640428
-0.527366
-0.411481
-0.294225
-0.176775
-0.0590421
54.3471
54.3508
54.3628
54.3832
54.4118
54.4481
54.4949
54.5347
54.6193
54.6273
54.7323
54.7386
54.7936
-1.09867
-1.00828
-1.1241
-0.889551
-0.891947
-0.755094
-0.647399
-0.533064
-0.415899
-0.29737
-0.178657
-0.0596674
54.3423
54.3459
54.3575
54.3775
54.4058
54.4418
54.4887
54.5299
54.6143
54.6266
54.7319
54.742
54.7982
-1.11172
-1.02082
-1.13616
-0.900384
-0.901806
-0.763625
-0.654646
-0.538989
-0.420494
-0.300641
-0.180614
-0.060318
54.3375
54.3409
54.3522
54.3718
54.3996
54.4354
54.4823
54.525
54.6092
54.6263
54.7324
54.7465
54.8042
-1.1251
-1.03363
-1.14846
-0.911455
-0.911881
-0.772346
-0.662057
-0.545049
-0.425195
-0.303988
-0.182617
-0.0609839
54.3328
54.336
54.3469
54.3661
54.3935
54.429
54.4759
54.5202
54.6044
54.6263
54.7339
54.7525
54.8118
-1.13859
-1.0465
-1.16082
-0.922586
-0.922012
-0.781121
-0.669516
-0.55115
-0.429929
-0.307359
-0.184634
-0.0616546
54.3284
54.3313
54.3418
54.3605
54.3874
54.4227
54.4696
54.5155
54.5998
54.6269
54.7364
54.7601
54.8212
-1.15198
-1.05924
-1.17303
-0.933601
-0.932037
-0.789809
-0.676904
-0.557194
-0.434619
-0.310699
-0.186634
-0.0623195
54.3242
54.3269
54.337
54.3551
54.3816
54.4166
54.4635
54.5111
54.5956
54.628
54.7402
54.769
54.8324
-1.16504
-1.07162
-1.1849
-0.944322
-0.941792
-0.798268
-0.6841
-0.563083
-0.439191
-0.313955
-0.188583
-0.0629677
54.3204
54.3228
54.3325
54.3501
54.3761
54.4109
54.4579
54.5071
54.5918
54.6296
54.7451
54.7792
54.8453
-1.17758
-1.08347
-1.19623
-0.954574
-0.951118
-0.806359
-0.690985
-0.568719
-0.443566
-0.317072
-0.190449
-0.0635884
54.317
54.3191
54.3283
54.3455
54.371
54.4055
54.4526
54.5034
54.5886
54.6316
54.7511
54.7904
54.8597
-1.18938
-1.09456
-1.20683
-0.964186
-0.959858
-0.813948
-0.697444
-0.574008
-0.447674
-0.319999
-0.192202
-0.0641712
54.3141
54.3159
54.3246
54.3413
54.3664
54.4007
54.4479
54.5002
54.586
54.6341
54.7578
54.8023
54.8749
-1.20026
-1.10476
-1.21653
-0.973004
-0.967867
-0.820907
-0.703368
-0.57886
-0.451442
-0.322684
-0.19381
-0.0647061
54.3119
54.3133
54.3214
54.3376
54.3623
54.3964
54.4437
54.4975
54.5839
54.6367
54.7648
54.8143
54.8905
-1.21004
-1.11386
-1.22515
-0.98087
-0.975004
-0.827115
-0.708654
-0.58319
-0.454806
-0.325081
-0.195245
-0.0651837
54.3103
54.3112
54.3188
54.3345
54.3588
54.3928
54.4402
54.4953
54.5823
54.6392
54.7718
54.8259
54.9055
-1.21857
-1.12178
-1.23258
-0.987675
-0.981157
-0.832469
-0.713212
-0.586925
-0.457707
-0.327149
-0.196484
-0.0655956
54.3096
54.3097
54.3167
54.332
54.356
54.3898
54.4374
54.4935
54.5812
54.6416
54.7781
54.8364
54.9193
-1.22573
-1.1283
-1.23865
-0.993272
-0.986205
-0.836868
-0.71696
-0.589997
-0.460094
-0.328851
-0.197503
-0.0659344
54.3105
54.3089
54.3152
54.3302
54.3539
54.3876
54.4352
54.4922
54.5804
54.6436
54.7835
54.8452
54.9308
-1.23141
-1.13349
-1.2433
-0.997608
-0.990083
-0.840243
-0.719836
-0.592353
-0.461925
-0.330155
-0.198284
-0.066194
54.3101
54.3082
54.3142
54.3289
54.3525
54.3861
54.4338
54.4914
54.58
54.645
54.7873
54.8516
54.9394
-1.23551
-1.13692
-1.24641
-1.00055
-0.992706
-0.84252
-0.721785
-0.593949
-0.463165
-0.331039
-0.198813
-0.0663696
54.3151
54.3087
54.3138
54.3284
54.3519
54.3855
54.4332
54.4911
54.5799
54.6457
54.7909
54.8539
54.9445
-1.23796
-1.13934
-1.24793
-1.00216
-0.994056
-0.843664
-0.722783
-0.594763
-0.463795
-0.331489
-0.199081
-0.0664576
54.3855
54.3825
54.3935
54.4147
54.4443
54.4809
54.527
54.5571
54.6454
54.6251
54.747
54.7281
54.7769
-1.03281
-0.943223
-1.0588
-0.8312
-0.837017
-0.707526
-0.606205
-0.49889
-0.389031
-0.278008
-0.166944
-0.0557244
54.379
54.3806
54.3928
54.4139
54.4436
54.4802
54.5264
54.5568
54.6449
54.6268
54.742
54.7274
54.7774
-1.03339
-0.944059
-1.0604
-0.832384
-0.838217
-0.708585
-0.607082
-0.499609
-0.389589
-0.278405
-0.167181
-0.0558042
54.3763
54.3787
54.3911
54.4124
54.4421
54.4787
54.525
54.5559
54.6436
54.6274
54.7404
54.7271
54.7783
-1.03575
-0.947078
-1.06347
-0.835035
-0.84067
-0.710701
-0.608867
-0.501065
-0.390717
-0.279206
-0.16766
-0.0559636
54.3723
54.376
54.3887
54.4101
54.4398
54.4765
54.5228
54.5543
54.6415
54.6276
54.7383
54.7271
54.7791
-1.03997
-0.951438
-1.06802
-0.838971
-0.844319
-0.713843
-0.611528
-0.503237
-0.392398
-0.280401
-0.168375
-0.0562011
54.3685
54.3728
54.3857
54.4071
54.4368
54.4734
54.5198
54.5521
54.6388
54.6274
54.7359
54.7271
54.7797
-1.04586
-0.957496
-1.07399
-0.844221
-0.849132
-0.717982
-0.615033
-0.506095
-0.394611
-0.281974
-0.169315
-0.0565135
54.3645
54.3692
54.3821
54.4035
54.4331
54.4697
54.516
54.5493
54.6354
54.6268
54.7334
54.727
54.7802
-1.05329
-0.964893
-1.08127
-0.850658
-0.855022
-0.723055
-0.619333
-0.509603
-0.397327
-0.283905
-0.170469
-0.056897
54.3603
54.3651
54.3781
54.3993
54.4288
54.4652
54.5116
54.5459
54.6314
54.6258
54.7307
54.727
54.7807
-1.06214
-0.973673
-1.08979
-0.858226
-0.861924
-0.729
-0.624372
-0.513713
-0.40051
-0.286168
-0.171822
-0.0573463
54.3559
54.3607
54.3736
54.3947
54.4239
54.4602
54.5065
54.5419
54.6268
54.6244
54.7279
54.727
54.7814
-1.07228
-0.983605
-1.09942
-0.866799
-0.869733
-0.735731
-0.630078
-0.518369
-0.404115
-0.288731
-0.173355
-0.0578554
54.3513
54.3561
54.3688
54.3896
54.4185
54.4546
54.5009
54.5375
54.6218
54.6227
54.7252
54.7272
54.7824
-1.08353
-0.994587
-1.11001
-0.876259
-0.878338
-0.743155
-0.636371
-0.523505
-0.408092
-0.29156
-0.175046
-0.0584173
54.3466
54.3512
54.3637
54.3841
54.4127
54.4486
54.4947
54.5325
54.6163
54.6207
54.7224
54.7276
54.7838
-1.09572
-1.00643
-1.12142
-0.886462
-0.887616
-0.751164
-0.643162
-0.529047
-0.412386
-0.294613
-0.176872
-0.0590239
54.3418
54.3462
54.3584
54.3785
54.4066
54.4423
54.4882
54.5273
54.6104
54.6187
54.7199
54.7286
54.7859
-1.10867
-1.01896
-1.13346
-0.897256
-0.897427
-0.759637
-0.650349
-0.534915
-0.416931
-0.297847
-0.178806
-0.0596664
54.3369
54.3412
54.353
54.3727
54.4004
54.4356
54.4814
54.5217
54.6044
54.6166
54.7176
54.7303
54.7889
-1.12216
-1.03198
-1.14596
-0.908473
-0.907623
-0.768449
-0.657825
-0.54102
-0.421662
-0.301212
-0.180819
-0.0603353
54.3321
54.3362
54.3476
54.3668
54.394
54.4289
54.4745
54.516
54.5982
54.6146
54.716
54.733
54.793
-1.13598
-1.04527
-1.15873
-0.919939
-0.918046
-0.777461
-0.665475
-0.547268
-0.426505
-0.304658
-0.182881
-0.0610203
54.3274
54.3313
54.3423
54.3609
54.3876
54.4221
54.4675
54.5103
54.5921
54.6128
54.715
54.7368
54.7984
-1.14992
-1.05863
-1.17155
-0.931473
-0.928533
-0.786533
-0.673178
-0.553563
-0.431384
-0.30813
-0.184958
-0.0617108
54.3229
54.3265
54.3371
54.3552
54.3813
54.4154
54.4606
54.5046
54.5862
54.6113
54.7149
54.7416
54.8054
-1.16375
-1.07185
-1.18422
-0.942889
-0.938914
-0.795519
-0.680811
-0.559802
-0.436222
-0.311573
-0.187018
-0.0623956
54.3187
54.322
54.3321
54.3497
54.3752
54.4089
54.4539
54.4992
54.5807
54.6102
54.7159
54.7478
54.8139
-1.17726
-1.0847
-1.19654
-0.954002
-0.94902
-0.804273
-0.68825
-0.565884
-0.440939
-0.314931
-0.189028
-0.0630637
54.3148
54.3179
54.3275
54.3445
54.3695
54.4027
54.4476
54.4941
54.5756
54.6096
54.718
54.7549
54.824
-1.19021
-1.09699
-1.2083
-0.964632
-0.958685
-0.81265
-0.695371
-0.571708
-0.445458
-0.318148
-0.190953
-0.0637038
54.3114
54.3141
54.3233
54.3397
54.3641
54.397
54.4417
54.4894
54.571
54.6094
54.7211
54.763
54.8354
-1.2024
-1.10851
-1.2193
-0.9746
-0.967746
-0.820509
-0.702054
-0.577176
-0.4497
-0.321169
-0.192761
-0.0643052
54.3085
54.3109
54.3195
54.3354
54.3593
54.3917
54.4363
54.4852
54.567
54.6096
54.725
54.7718
54.8477
-1.21364
-1.1191
-1.22938
-0.983747
-0.97605
-0.827718
-0.708186
-0.582193
-0.453594
-0.323942
-0.194421
-0.0648573
54.3062
54.3082
54.3163
54.3316
54.355
54.3871
54.4316
54.4815
54.5637
54.6102
54.7294
54.7809
54.8605
-1.22375
-1.12854
-1.23834
-0.991906
-0.983453
-0.834151
-0.713659
-0.586674
-0.457072
-0.32642
-0.195904
-0.0653506
54.3046
54.3061
54.3136
54.3284
54.3513
54.3832
54.4276
54.4785
54.561
54.6109
54.7339
54.7898
54.8729
-1.23256
-1.13675
-1.24605
-0.998964
-0.989836
-0.839699
-0.71838
-0.590538
-0.460073
-0.328557
-0.197184
-0.0657761
54.3038
54.3046
54.3114
54.3258
54.3483
54.3799
54.4243
54.476
54.5589
54.6117
54.7382
54.7979
54.8843
-1.23994
-1.14352
-1.25235
-1.00477
-0.995073
-0.844259
-0.722262
-0.593718
-0.462542
-0.330316
-0.198237
-0.0661263
54.3047
54.3037
54.3099
54.3239
54.3461
54.3775
54.4219
54.4742
54.5574
54.6124
54.7419
54.8047
54.8938
-1.2458
-1.1489
-1.25718
-1.00927
-0.999097
-0.847758
-0.725242
-0.596158
-0.464435
-0.331665
-0.199045
-0.0663947
54.3043
54.303
54.3088
54.3226
54.3446
54.3759
54.4202
54.473
54.5565
54.613
54.7444
54.8098
54.9008
-1.25004
-1.15245
-1.26042
-1.01232
-1.00182
-0.85012
-0.727261
-0.597811
-0.465719
-0.332579
-0.199592
-0.0665763
54.3093
54.3036
54.3084
54.3221
54.344
54.3752
54.4195
54.4725
54.5561
54.6133
54.747
54.8128
54.9047
-1.25256
-1.15494
-1.262
-1.01398
-1.00322
-0.851305
-0.728295
-0.598652
-0.466371
-0.333044
-0.19987
-0.0666674
54.3782
54.3763
54.3876
54.4087
54.4381
54.4744
54.5203
54.5507
54.6383
54.6194
54.7393
54.7226
54.7719
-1.04515
-0.954932
-1.06875
-0.839376
-0.84224
-0.711816
-0.608581
-0.500034
-0.389341
-0.277854
-0.166647
-0.0555481
54.3717
54.3745
54.3867
54.4079
54.4374
54.4738
54.5197
54.5503
54.6376
54.6212
54.7338
54.7217
54.7725
-1.04579
-0.955849
-1.07043
-0.840624
-0.843493
-0.712921
-0.609494
-0.500781
-0.389919
-0.278264
-0.166893
-0.0556302
54.369
54.3725
54.3851
54.4063
54.4358
54.4722
54.5182
54.5492
54.6361
54.6216
54.7321
54.7212
54.7733
-1.04828
-0.959032
-1.07366
-0.843405
-0.846056
-0.715127
-0.611351
-0.502294
-0.391088
-0.279094
-0.167388
-0.055795
54.365
54.3698
54.3827
54.404
54.4335
54.4698
54.5157
54.5475
54.6338
54.6215
54.7294
54.7208
54.7738
-1.05273
-0.963639
-1.07843
-0.847533
-0.849869
-0.718404
-0.61412
-0.504549
-0.392832
-0.280332
-0.168128
-0.0560406
54.3611
54.3665
54.3797
54.4009
54.4303
54.4666
54.5125
54.545
54.6307
54.6208
54.7265
54.7203
54.774
-1.05893
-0.970024
-1.0847
-0.85304
-0.8549
-0.722722
-0.617769
-0.50752
-0.395129
-0.281963
-0.169102
-0.056364
54.3571
54.3628
54.376
54.3972
54.4265
54.4626
54.5085
54.5418
54.6268
54.6196
54.7233
54.7196
54.7739
-1.06674
-0.977823
-1.09236
-0.859793
-0.861061
-0.728018
-0.622249
-0.511167
-0.397949
-0.283966
-0.170298
-0.0567613
54.3529
54.3587
54.3719
54.3929
54.422
54.4579
54.5037
54.5379
54.6221
54.6178
54.7196
54.7187
54.7736
-1.07605
-0.987078
-1.10133
-0.867735
-0.868284
-0.734228
-0.6275
-0.515443
-0.401255
-0.286314
-0.171702
-0.0572271
54.3484
54.3542
54.3673
54.3881
54.4169
54.4526
54.4982
54.5333
54.6168
54.6154
54.7156
54.7175
54.7731
-1.08671
-0.99755
-1.11145
-0.876736
-0.876461
-0.741264
-0.633451
-0.520291
-0.405004
-0.288977
-0.173293
-0.0577553
54.3438
54.3495
54.3624
54.3829
54.4113
54.4467
54.492
54.5281
54.6108
54.6124
54.7112
54.7162
54.7726
-1.09855
-1.00913
-1.12261
-0.886673
-0.885479
-0.749028
-0.640021
-0.525643
-0.409143
-0.291918
-0.17505
-0.0583387
54.339
54.3446
54.3572
54.3773
54.4053
54.4403
54.4853
54.5223
54.6042
54.6089
54.7064
54.7148
54.7721
-1.11138
-1.02163
-1.13463
-0.897396
-0.895208
-0.757411
-0.647114
-0.531423
-0.413614
-0.295095
-0.176949
-0.0589692
54.3342
54.3395
54.3518
54.3715
54.3989
54.4335
54.4781
54.516
54.597
54.6049
54.7013
54.7135
54.7717
-1.125
-1.03484
-1.14732
-0.908746
-0.905504
-0.766287
-0.654628
-0.537548
-0.418353
-0.298462
-0.178961
-0.0596376
54.3292
54.3344
54.3463
54.3655
54.3923
54.4264
54.4706
54.5093
54.5894
54.6005
54.696
54.7124
54.7716
-1.1392
-1.04858
-1.16051
-0.920547
-0.916211
-0.775524
-0.662451
-0.543926
-0.423289
-0.30197
-0.181058
-0.0603341
54.3244
54.3293
54.3408
54.3594
54.3856
54.4191
54.4628
54.5023
54.5816
54.5959
54.6908
54.7119
54.7721
-1.15375
-1.06261
-1.17397
-0.932617
-0.927165
-0.784978
-0.670462
-0.55046
-0.428347
-0.305565
-0.183208
-0.0610481
54.3196
54.3243
54.3353
54.3533
54.3788
54.4117
54.4549
54.4952
54.5736
54.5911
54.686
54.7116
54.7733
-1.16842
-1.07671
-1.1875
-0.944763
-0.938193
-0.794502
-0.678536
-0.557047
-0.433447
-0.309191
-0.185376
-0.0617684
54.3151
54.3195
54.33
54.3473
54.3722
54.4044
54.447
54.488
54.5657
54.5863
54.6816
54.7119
54.7756
-1.18297
-1.09067
-1.20088
-0.956791
-0.949117
-0.803943
-0.686542
-0.563582
-0.438508
-0.31279
-0.187528
-0.0624836
54.3108
54.3149
54.3249
54.3416
54.3657
54.3973
54.4394
54.481
54.558
54.5818
54.6781
54.7131
54.7789
-1.19718
-1.10424
-1.21388
-0.968505
-0.959758
-0.813145
-0.694351
-0.569958
-0.443447
-0.316302
-0.189629
-0.0631818
54.3068
54.3107
54.3202
54.3362
54.3596
54.3905
54.432
54.4743
54.5507
54.5776
54.6754
54.7151
54.7835
-1.21081
-1.11722
-1.2263
-0.979712
-0.969939
-0.821957
-0.701831
-0.576068
-0.448181
-0.31967
-0.191643
-0.0638513
54.3034
54.3069
54.3158
54.3312
54.3539
54.3842
54.4252
54.468
54.5439
54.5738
54.6738
54.7179
54.7893
-1.22364
-1.12938
-1.23793
-0.990225
-0.979489
-0.830228
-0.708856
-0.581807
-0.45263
-0.322835
-0.193537
-0.0644808
54.3004
54.3036
54.3119
54.3267
54.3487
54.3784
54.4189
54.4623
54.5379
54.5706
54.673
54.7216
54.7959
-1.23546
-1.14055
-1.24858
-0.999872
-0.988245
-0.837818
-0.715305
-0.587078
-0.456716
-0.325742
-0.195276
-0.0650592
54.2981
54.3008
54.3086
54.3227
54.3441
54.3732
54.4133
54.4573
54.5326
54.5679
54.6729
54.7256
54.803
-1.24609
-1.15052
-1.25804
-1.00848
-0.996053
-0.844594
-0.721063
-0.591786
-0.460367
-0.328341
-0.196831
-0.0655762
54.2965
54.2986
54.3058
54.3194
54.3401
54.3688
54.4086
54.4529
54.5281
54.5657
54.6733
54.7297
54.81
-1.25535
-1.15918
-1.26619
-1.01592
-1.00279
-0.85044
-0.726032
-0.59585
-0.463518
-0.330584
-0.198174
-0.0660225
54.2957
54.2971
54.3036
54.3166
54.337
54.3652
54.4047
54.4494
54.5245
54.5639
54.6739
54.7335
54.8165
-1.26311
-1.16631
-1.27286
-1.02205
-1.00831
-0.855245
-0.73012
-0.599194
-0.466112
-0.33243
-0.199279
-0.06639
54.2965
54.2962
54.302
54.3146
54.3345
54.3625
54.4017
54.4467
54.5217
54.5626
54.6746
54.7365
54.8218
-1.26926
-1.17197
-1.27796
-1.02679
-1.01256
-0.858934
-0.733258
-0.60176
-0.468103
-0.333847
-0.200127
-0.0666718
54.2961
54.2955
54.3009
54.3133
54.3329
54.3606
54.3997
54.4449
54.5199
54.5618
54.6748
54.7388
54.8256
-1.27369
-1.17572
-1.28138
-1.03
-1.01543
-0.861425
-0.735385
-0.6035
-0.469452
-0.334808
-0.200702
-0.0668627
54.301
54.2961
54.3005
54.3127
54.3322
54.3598
54.3988
54.4441
54.5191
54.5615
54.6754
54.74
54.8274
-1.27634
-1.1783
-1.28305
-1.03175
-1.01691
-0.862674
-0.736473
-0.604385
-0.470138
-0.335296
-0.200994
-0.0669587
54.3699
54.3685
54.3798
54.4008
54.4299
54.4659
54.5114
54.5421
54.6287
54.6116
54.7293
54.7148
54.7646
-1.06209
-0.970696
-1.08191
-0.8502
-0.849028
-0.717325
-0.611558
-0.501375
-0.389593
-0.277524
-0.166171
-0.0552829
54.3633
54.3667
54.379
54.4
54.4292
54.4651
54.5107
54.5416
54.6279
54.6133
54.7236
54.7138
54.7652
-1.06282
-0.971721
-1.08369
-0.851535
-0.850352
-0.71849
-0.612518
-0.502159
-0.390199
-0.277953
-0.166426
-0.0553681
54.3606
54.3647
54.3773
54.3983
54.4275
54.4635
54.509
54.5403
54.6262
54.6135
54.7215
54.713
54.7658
-1.0655
-0.975127
-1.08713
-0.85449
-0.853062
-0.720817
-0.614471
-0.503745
-0.391422
-0.27882
-0.166944
-0.0555399
54.3566
54.3619
54.3749
54.3959
54.425
54.4609
54.5064
54.5383
54.6235
54.6129
54.7183
54.7123
54.766
-1.07026
-0.98007
-1.09221
-0.858879
-0.857096
-0.724275
-0.617385
-0.506112
-0.393249
-0.280115
-0.167717
-0.0557963
54.3527
54.3586
54.3718
54.3928
54.4218
54.4575
54.5029
54.5354
54.6198
54.6116
54.7147
54.7111
54.7656
-1.07689
-0.9869
-1.0989
-0.864733
-0.862421
-0.728835
-0.621227
-0.509232
-0.395657
-0.281823
-0.168736
-0.0561343
54.3486
54.3548
54.3681
54.389
54.4177
54.4533
54.4985
54.5317
54.6153
54.6096
54.7104
54.7094
54.7646
-1.08524
-0.995248
-1.10706
-0.871914
-0.868947
-0.73443
-0.625946
-0.513066
-0.398615
-0.283921
-0.169988
-0.0565497
54.3444
54.3506
54.3638
54.3845
54.413
54.4483
54.4932
54.5271
54.6099
54.6067
54.7054
54.7072
54.763
-1.09519
-1.00515
-1.11663
-0.880362
-0.876602
-0.740995
-0.631482
-0.517564
-0.402087
-0.286384
-0.171458
-0.0570374
54.3399
54.3461
54.3592
54.3796
54.4077
54.4426
54.4871
54.5218
54.6035
54.6029
54.6996
54.7044
54.7609
-1.10659
-1.01636
-1.12744
-0.889942
-0.885276
-0.74844
-0.637762
-0.522669
-0.406027
-0.289179
-0.173127
-0.0575911
54.3352
54.3413
54.3541
54.3741
54.4018
54.4362
54.4803
54.5156
54.5962
54.5982
54.6929
54.7009
54.7581
-1.11924
-1.02875
-1.13936
-0.900524
-0.894851
-0.756664
-0.644702
-0.52831
-0.410383
-0.292269
-0.174972
-0.0582033
54.3304
54.3363
54.3488
54.3683
54.3954
54.4293
54.4728
54.5086
54.5881
54.5925
54.6852
54.6967
54.7546
-1.13296
-1.04213
-1.15221
-0.911953
-0.90519
-0.76555
-0.652203
-0.534409
-0.415093
-0.295611
-0.176968
-0.0588656
54.3254
54.3311
54.3432
54.3623
54.3887
54.4219
54.4648
54.501
54.5791
54.5858
54.6765
54.692
54.7504
-1.14752
-1.05629
-1.16579
-0.924058
-0.916142
-0.77497
-0.660158
-0.54088
-0.420091
-0.299158
-0.179086
-0.0595687
54.3204
54.3259
54.3376
54.356
54.3817
54.4142
54.4562
54.4928
54.5695
54.5783
54.6669
54.6867
54.7456
-1.1627
-1.071
-1.1799
-0.936654
-0.927543
-0.784782
-0.668449
-0.547626
-0.425303
-0.302858
-0.181296
-0.0603023
54.3155
54.3207
54.3319
54.3496
54.3745
54.4062
54.4473
54.484
54.5593
54.5698
54.6566
54.6806
54.7402
-1.17827
-1.08604
-1.19432
-0.949545
-0.939217
-0.794836
-0.676949
-0.554546
-0.43065
-0.306654
-0.183564
-0.0610552
54.3107
54.3156
54.3263
54.3433
54.3673
54.3981
54.4382
54.475
54.5487
54.5607
54.646
54.6738
54.7345
-1.19396
-1.10117
-1.20882
-0.962525
-0.95098
-0.804974
-0.685525
-0.561529
-0.436048
-0.310487
-0.185854
-0.0618157
54.306
54.3107
54.3208
54.3371
54.3602
54.39
54.4291
54.4658
54.5379
54.5513
54.6353
54.6668
54.7287
-1.20953
-1.11613
-1.22316
-0.975387
-0.962642
-0.815032
-0.694039
-0.568465
-0.441412
-0.314296
-0.18813
-0.0625717
54.3017
54.306
54.3155
54.3311
54.3532
54.3821
54.4201
54.4567
54.5272
54.5417
54.625
54.6598
54.7233
-1.22472
-1.13068
-1.23711
-0.987919
-0.974012
-0.824845
-0.70235
-0.575239
-0.446651
-0.318018
-0.190355
-0.0633106
54.2977
54.3017
54.3106
54.3254
54.3466
54.3745
54.4115
54.4478
54.5168
54.5323
54.6153
54.6533
54.7186
-1.2393
-1.1446
-1.25044
-0.999914
-0.984898
-0.834249
-0.710318
-0.581737
-0.451678
-0.32159
-0.19249
-0.06402
54.2941
54.2978
54.3061
54.3201
54.3404
54.3673
54.4033
54.4394
54.507
54.5234
54.6064
54.6475
54.7146
-1.25301
-1.15764
-1.26291
-1.01117
-0.995114
-0.843082
-0.717808
-0.587846
-0.456406
-0.32495
-0.194499
-0.0646876
54.2911
54.2944
54.3021
54.3153
54.3348
54.3608
54.3958
54.4316
54.4979
54.5152
54.5986
54.6424
54.7114
-1.26564
-1.16961
-1.27434
-1.0215
-1.00449
-0.851192
-0.724688
-0.593461
-0.460753
-0.328039
-0.196346
-0.0653015
54.2887
54.2915
54.2986
54.3111
54.3298
54.355
54.3891
54.4246
54.4897
54.5078
54.5917
54.6378
54.7087
-1.27699
-1.18029
-1.2845
-1.03072
-1.01285
-0.858436
-0.730836
-0.59848
-0.46464
-0.330802
-0.197999
-0.0658508
54.2871
54.2893
54.2957
54.3076
54.3255
54.3499
54.3833
54.4185
54.4825
54.5013
54.5858
54.6337
54.7062
-1.28687
-1.18956
-1.29324
-1.03869
-1.02006
-0.864689
-0.736144
-0.602814
-0.467996
-0.333189
-0.199426
-0.0663253
54.2862
54.2877
54.2934
54.3047
54.322
54.3458
54.3785
54.4135
54.4766
54.4959
54.5807
54.6298
54.7037
-1.29515
-1.19719
-1.3004
-1.04525
-1.02599
-0.86983
-0.740512
-0.606383
-0.470761
-0.335155
-0.200602
-0.0667163
54.287
54.2868
54.2917
54.3025
54.3194
54.3427
54.3749
54.4096
54.472
54.4917
54.5766
54.6262
54.7011
-1.3017
-1.20323
-1.30587
-1.05033
-1.03054
-0.873777
-0.743866
-0.609123
-0.472883
-0.336664
-0.201505
-0.0670164
54.2866
54.2861
54.2906
54.3011
54.3176
54.3406
54.3724
54.407
54.4688
54.4888
54.5733
54.6231
54.6984
-1.30642
-1.20724
-1.30955
-1.05377
-1.03362
-0.876443
-0.74614
-0.61098
-0.474322
-0.337688
-0.202118
-0.0672197
54.2914
54.2867
54.2902
54.3005
54.3169
54.3396
54.3713
54.4058
54.4672
54.4877
54.572
54.6193
54.6961
-1.30921
-1.20996
-1.31135
-1.05563
-1.0352
-0.87778
-0.747302
-0.611925
-0.475054
-0.338209
-0.202429
-0.0673224
54.3602
54.3591
54.3704
54.391
54.4197
54.4552
54.5003
54.5312
54.6167
54.6018
54.7169
54.7049
54.7552
-1.08371
-0.990555
-1.09826
-0.863642
-0.857291
-0.723927
-0.615019
-0.502796
-0.389688
-0.276943
-0.165468
-0.0549127
54.3536
54.3573
54.3695
54.3902
54.4189
54.4544
54.4995
54.5307
54.6158
54.6033
54.711
54.7038
54.7557
-1.08456
-0.99172
-1.10016
-0.865085
-0.858705
-0.725167
-0.616038
-0.503625
-0.390326
-0.277394
-0.165736
-0.0550017
54.3509
54.3553
54.3678
54.3885
54.4172
54.4526
54.4976
54.5292
54.6138
54.6031
54.7086
54.7027
54.7561
-1.08749
-0.995414
-1.10387
-0.868261
-0.8616
-0.727645
-0.61811
-0.505303
-0.391618
-0.278308
-0.16628
-0.0551821
54.3469
54.3524
54.3653
54.386
54.4146
54.4499
54.4948
54.5268
54.6107
54.602
54.7048
54.7014
54.7557
-1.09267
-1.00079
-1.10935
-0.87298
-0.865912
-0.73133
-0.621204
-0.50781
-0.393548
-0.279674
-0.167094
-0.0554518
54.343
54.349
54.3621
54.3828
54.4112
54.4463
54.4909
54.5234
54.6064
54.5999
54.7002
54.6993
54.7545
-1.09985
-1.00819
-1.11656
-0.879272
-0.871607
-0.736192
-0.625286
-0.511116
-0.396093
-0.281476
-0.168168
-0.0558078
54.3389
54.3452
54.3583
54.3788
54.4069
54.4417
54.486
54.5191
54.6011
54.5968
54.6947
54.6965
54.7524
-1.1089
-1.01724
-1.12538
-0.886996
-0.878592
-0.742163
-0.630305
-0.515182
-0.399224
-0.283693
-0.16949
-0.0562459
54.3346
54.3409
54.354
54.3742
54.4019
54.4363
54.4802
54.5137
54.5946
54.5926
54.6881
54.6927
54.7492
-1.11969
-1.02796
-1.13571
-0.896087
-0.886794
-0.749176
-0.636199
-0.519958
-0.402903
-0.286298
-0.171044
-0.0567608
54.33
54.3363
54.3492
54.369
54.3963
54.4302
54.4735
54.5074
54.587
54.587
54.68
54.6876
54.7448
-1.13204
-1.04012
-1.14741
-0.906404
-0.896097