/*--------------------------------*- C++ -*----------------------------------*\
| =========                 |                                                 |
| \\      /  F ield         | OpenFOAM: The Open Source CFD Toolbox           |
|  \\    /   O peration     | Version:  2306                                  |
|   \\  /    A nd           | Website:  www.openfoam.com                      |
|    \\/     M anipulation  |                                                 |
\*---------------------------------------------------------------------------*/
FoamFile
{
    version     2.0;
    format      ascii;
    arch        "LSB;label=32;scalar=64";
    class       volScalarField;
    location    "5";
    object      p;
}
// * * * * * * * * * * * * * * * * * * * * * * * * * * * * * * * * * * * * * //

dimensions      [0 2 -2 0 0 0 0];

internalField   nonuniform List<scalar> 
288632
(
71.4283
71.4199
71.4331
71.4593
71.4949
71.5368
71.5925
71.638
71.7028
71.738
71.8063
71.8286
71.8567
-2.9321
-2.78306
-2.74853
-2.43375
-2.28344
-1.97022
-1.70554
-1.40911
-1.10223
-0.789943
-0.474906
-0.158548
71.4215
71.4185
71.4327
71.459
71.4948
71.5368
71.5927
71.6386
71.7035
71.7392
71.807
71.829
71.8577
-2.93276
-2.78376
-2.74976
-2.43475
-2.28446
-1.97121
-1.70637
-1.40983
-1.10281
-0.790361
-0.47516
-0.158635
71.4196
71.4176
71.4319
71.4583
71.4943
71.5366
71.5926
71.6391
71.7044
71.7413
71.8091
71.8311
71.8604
-2.93482
-2.78628
-2.75233
-2.43702
-2.28669
-1.97317
-1.70811
-1.41132
-1.10399
-0.791226
-0.475686
-0.158813
71.416
71.4157
71.4307
71.4573
71.4935
71.5362
71.5925
71.6398
71.7057
71.7441
71.8118
71.8348
71.8644
-2.93822
-2.78981
-2.75615
-2.44038
-2.29003
-1.97609
-1.71073
-1.41354
-1.10577
-0.792521
-0.476474
-0.159079
71.4136
71.4138
71.4292
71.456
71.4925
71.5356
71.5923
71.6406
71.7073
71.7477
71.8156
71.8395
71.8696
-2.94287
-2.79461
-2.76116
-2.44481
-2.29444
-1.97991
-1.71418
-1.41646
-1.10811
-0.794229
-0.477515
-0.159431
71.4111
71.4117
71.4274
71.4544
71.4913
71.5349
71.592
71.6415
71.7093
71.752
71.8203
71.8456
71.876
-2.94868
-2.80042
-2.76726
-2.45023
-2.29983
-1.98459
-1.71841
-1.42005
-1.11098
-0.796327
-0.478794
-0.159864
71.4087
71.4095
71.4254
71.4527
71.4899
71.534
71.5917
71.6426
71.7117
71.7571
71.826
71.8528
71.8838
-2.95551
-2.80723
-2.77436
-2.45656
-2.30612
-1.99006
-1.72336
-1.42424
-1.11434
-0.798785
-0.480294
-0.160371
71.4063
71.4072
71.4233
71.4508
71.4883
71.533
71.5913
71.6438
71.7144
71.7629
71.8328
71.8614
71.893
-2.96325
-2.81486
-2.7823
-2.46367
-2.31321
-1.99622
-1.72894
-1.42898
-1.11815
-0.801568
-0.481992
-0.160946
71.4039
71.4049
71.4211
71.4487
71.4866
71.532
71.5909
71.6452
71.7175
71.7694
71.8407
71.8713
71.9037
-2.97172
-2.82319
-2.79097
-2.47145
-2.32097
-2.00298
-1.73509
-1.4342
-1.12234
-0.804635
-0.483865
-0.161581
71.4015
71.4026
71.4188
71.4466
71.4848
71.5309
71.5905
71.6467
71.7209
71.7766
71.8497
71.8827
71.916
-2.98079
-2.83207
-2.8002
-2.47977
-2.32928
-2.01023
-1.74169
-1.43981
-1.12685
-0.807941
-0.485885
-0.162265
71.3992
71.4003
71.4165
71.4444
71.4829
71.5297
71.5902
71.6483
71.7248
71.7845
71.86
71.8954
71.93
-2.99027
-2.84133
-2.80983
-2.48849
-2.338
-2.01786
-1.74864
-1.44574
-1.13162
-0.811437
-0.488023
-0.16299
71.3969
71.398
71.4142
71.4422
71.481
71.5285
71.5899
71.6502
71.7291
71.7931
71.8716
71.9097
71.9457
-3
-2.85082
-2.81971
-2.49746
-2.34699
-2.02574
-1.75584
-1.45188
-1.13657
-0.815069
-0.490244
-0.163744
71.3947
71.3958
71.412
71.4401
71.4791
71.5273
71.5896
71.6521
71.7337
71.8025
71.8843
71.9256
71.9632
-3.00982
-2.86037
-2.82967
-2.50653
-2.3561
-2.03375
-1.76317
-1.45814
-1.14162
-0.818779
-0.492515
-0.164515
71.3927
71.3937
71.4098
71.438
71.4773
71.5262
71.5895
71.6543
71.7387
71.8124
71.8983
71.9429
71.9825
-3.01957
-2.86984
-2.83954
-2.51556
-2.36519
-2.04175
-1.77051
-1.46442
-1.14669
-0.822509
-0.4948
-0.165291
71.3907
71.3917
71.4077
71.436
71.4755
71.5251
71.5894
71.6566
71.744
71.8229
71.9134
71.9615
72.0035
-3.02908
-2.87906
-2.84916
-2.5244
-2.3741
-2.04962
-1.77775
-1.47062
-1.15171
-0.826199
-0.497062
-0.16606
71.389
71.3899
71.4058
71.4341
71.4738
71.5241
71.5895
71.659
71.7496
71.8338
71.9294
71.9813
72.0259
-3.0382
-2.8879
-2.8584
-2.53292
-2.38271
-2.05724
-1.78476
-1.47664
-1.15658
-0.829789
-0.499263
-0.166809
71.3876
71.3883
71.4041
71.4323
71.4723
71.5231
71.5897
71.6615
71.7553
71.8448
71.946
72.0019
72.0495
-3.04682
-2.89623
-2.8671
-2.54098
-2.39087
-2.06448
-1.79144
-1.48238
-1.16124
-0.833218
-0.501368
-0.167525
71.3864
71.3869
71.4026
71.4308
71.4709
71.5223
71.5899
71.6641
71.761
71.8558
71.9628
72.0228
72.0737
-3.05479
-2.90393
-2.87515
-2.54845
-2.39845
-2.07122
-1.79768
-1.48775
-1.16559
-0.836431
-0.503341
-0.168197
71.3855
71.3858
71.4013
71.4294
71.4696
71.5216
71.5902
71.6666
71.7665
71.8665
71.9793
72.0435
72.0978
-3.06203
-2.9109
-2.88243
-2.55525
-2.40535
-2.07737
-1.80337
-1.49265
-1.16958
-0.839374
-0.505149
-0.168813
71.385
71.385
71.4002
71.4282
71.4686
71.521
71.5906
71.669
71.7717
71.8764
71.995
72.0633
72.121
-3.06845
-2.91703
-2.88883
-2.56125
-2.41146
-2.08282
-1.80843
-1.49701
-1.17313
-0.841996
-0.506761
-0.169363
71.3851
71.3845
71.3994
71.4273
71.4677
71.5206
71.591
71.6712
71.7764
71.8854
72.0092
72.0814
72.1426
-3.07395
-2.9223
-2.8943
-2.5664
-2.41669
-2.08749
-1.81277
-1.50076
-1.17618
-0.844253
-0.508149
-0.169836
71.3851
71.3842
71.3988
71.4265
71.467
71.5202
71.5913
71.673
71.7804
71.893
72.0213
72.0973
72.1616
-3.0785
-2.92657
-2.89873
-2.57059
-2.42097
-2.09131
-1.81634
-1.50384
-1.17868
-0.846106
-0.509289
-0.170225
71.3875
71.3846
71.3984
71.4261
71.4665
71.52
71.5916
71.6745
71.7836
71.899
72.0309
72.1101
72.1771
-3.08203
-2.92992
-2.90211
-2.57381
-2.42425
-2.09422
-1.81907
-1.50619
-1.1806
-0.847525
-0.510162
-0.170522
71.3883
71.3844
71.398
71.4257
71.4662
71.5198
71.5917
71.6755
71.7857
71.9031
72.0372
72.1194
72.1883
-3.08449
-2.93203
-2.90437
-2.57596
-2.42647
-2.09617
-1.82092
-1.50778
-1.1819
-0.848484
-0.510752
-0.170723
71.3943
71.3853
71.3981
71.4257
71.4661
71.5198
71.5919
71.676
71.787
71.9053
72.0406
72.1238
72.1949
-3.0858
-2.93355
-2.90554
-2.57711
-2.42766
-2.09712
-1.82188
-1.50858
-1.18256
-0.84897
-0.51105
-0.170824
71.4195
71.4164
71.4304
71.4566
71.4923
71.5341
71.5897
71.6354
71.7
71.7355
71.803
71.8259
71.8552
-2.94086
-2.79291
-2.75806
-2.44119
-2.28937
-1.97485
-1.70858
-1.41107
-1.10337
-0.790516
-0.475142
-0.158593
71.4129
71.4148
71.4299
71.4564
71.4922
71.5341
71.5899
71.6359
71.7006
71.7373
71.8023
71.8265
71.8566
-2.94147
-2.79365
-2.75933
-2.44222
-2.29041
-1.97585
-1.70942
-1.4118
-1.10395
-0.790942
-0.475401
-0.158681
71.4108
71.4139
71.4292
71.4557
71.4917
71.5339
71.5899
71.6364
71.7015
71.7394
71.8043
71.8287
71.8594
-2.94356
-2.79621
-2.76195
-2.44454
-2.29268
-1.97786
-1.71119
-1.41331
-1.10516
-0.791822
-0.475936
-0.158862
71.4074
71.412
71.428
71.4546
71.4909
71.5334
71.5897
71.637
71.7027
71.7422
71.8067
71.8322
71.8634
-2.94701
-2.79981
-2.76585
-2.44795
-2.29608
-1.98082
-1.71386
-1.41557
-1.10696
-0.79314
-0.476739
-0.159134
71.405
71.41
71.4265
71.4533
71.4898
71.5328
71.5894
71.6378
71.7042
71.7457
71.8103
71.837
71.8686
-2.95174
-2.80469
-2.77096
-2.45248
-2.30058
-1.98472
-1.71737
-1.41855
-1.10935
-0.794878
-0.477799
-0.159492
71.4027
71.4078
71.4247
71.4517
71.4885
71.532
71.5891
71.6386
71.7061
71.7499
71.8148
71.8429
71.875
-2.95763
-2.81062
-2.77718
-2.45799
-2.30607
-1.98949
-1.72168
-1.4222
-1.11227
-0.797014
-0.479101
-0.159933
71.4003
71.4056
71.4227
71.4499
71.4871
71.5311
71.5887
71.6396
71.7084
71.7548
71.8204
71.8501
71.8827
-2.96456
-2.81755
-2.78442
-2.46443
-2.31248
-1.99505
-1.72671
-1.42647
-1.11569
-0.799517
-0.480628
-0.160449
71.3978
71.4034
71.4205
71.448
71.4854
71.5301
71.5882
71.6406
71.7109
71.7604
71.8269
71.8586
71.8919
-2.9724
-2.82531
-2.79251
-2.47167
-2.3197
-2.00133
-1.73241
-1.4313
-1.11957
-0.802352
-0.482359
-0.161035
71.3953
71.4012
71.4183
71.4459
71.4836
71.5289
71.5877
71.6418
71.7138
71.7665
71.8346
71.8683
71.9025
-2.98099
-2.83379
-2.80134
-2.4796
-2.32761
-2.00821
-1.73866
-1.43662
-1.12384
-0.805478
-0.484268
-0.161682
71.3929
71.3989
71.416
71.4437
71.4818
71.5277
71.5871
71.6431
71.717
71.7734
71.8434
71.8795
71.9146
-2.99017
-2.84281
-2.81075
-2.48807
-2.33608
-2.0156
-1.74539
-1.44234
-1.12844
-0.808849
-0.486328
-0.162381
71.3905
71.3966
71.4137
71.4415
71.4798
71.5264
71.5866
71.6445
71.7206
71.7809
71.8532
71.892
71.9284
-2.99978
-2.85222
-2.82056
-2.49694
-2.34497
-2.02338
-1.75248
-1.44838
-1.1333
-0.812414
-0.488508
-0.16312
71.3882
71.3943
71.4113
71.4392
71.4778
71.5251
71.5861
71.646
71.7246
71.789
71.8642
71.906
71.9439
-3.00963
-2.86186
-2.83062
-2.50607
-2.35413
-2.03141
-1.75982
-1.45465
-1.13835
-0.816119
-0.490775
-0.163889
71.386
71.392
71.4091
71.437
71.4759
71.5238
71.5857
71.6477
71.7289
71.7978
71.8764
71.9215
71.9612
-3.01957
-2.87156
-2.84075
-2.5153
-2.36342
-2.03958
-1.76729
-1.46104
-1.14351
-0.819905
-0.493093
-0.164677
71.3839
71.3899
71.4068
71.4348
71.4739
71.5225
71.5853
71.6495
71.7335
71.8071
71.8897
71.9384
71.9803
-3.02942
-2.88116
-2.85078
-2.52449
-2.37268
-2.04774
-1.77478
-1.46745
-1.14869
-0.823714
-0.495426
-0.16547
71.382
71.3879
71.4048
71.4328
71.472
71.5212
71.5851
71.6515
71.7384
71.8169
71.904
71.9567
72.001
-3.03902
-2.89051
-2.86057
-2.53348
-2.38176
-2.05576
-1.78216
-1.47378
-1.15381
-0.827482
-0.497737
-0.166256
71.3802
71.386
71.4028
71.4308
71.4703
71.52
71.5849
71.6535
71.7435
71.827
71.9191
71.976
72.0232
-3.04824
-2.89947
-2.86995
-2.54214
-2.39053
-2.06353
-1.78931
-1.47992
-1.15878
-0.831149
-0.499987
-0.167021
71.3788
71.3844
71.4011
71.429
71.4686
71.519
71.5848
71.6557
71.7488
71.8373
71.9348
71.9962
72.0465
-3.05694
-2.9079
-2.87879
-2.55033
-2.39884
-2.07091
-1.79613
-1.48578
-1.16354
-0.834654
-0.502138
-0.167754
71.3776
71.3831
71.3995
71.4274
71.4671
71.518
71.5849
71.6579
71.754
71.8475
71.9507
72.0167
72.0704
-3.06498
-2.91568
-2.88696
-2.55793
-2.40657
-2.07778
-1.80249
-1.49126
-1.16799
-0.837938
-0.504156
-0.168441
71.3767
71.382
71.3982
71.426
71.4658
71.5172
71.585
71.66
71.7591
71.8573
71.9663
72.037
72.0943
-3.07228
-2.92274
-2.89434
-2.56483
-2.41359
-2.08405
-1.8083
-1.49627
-1.17206
-0.840946
-0.506005
-0.169071
71.3762
71.3811
71.3971
71.4248
71.4647
71.5164
71.5851
71.6621
71.7639
71.8666
71.9811
72.0565
72.1174
-3.07874
-2.92893
-2.90084
-2.57093
-2.41981
-2.0896
-1.81346
-1.50073
-1.17569
-0.843627
-0.507654
-0.169634
71.3763
71.3806
71.3962
71.4238
71.4637
71.5159
71.5853
71.664
71.7682
71.8748
71.9945
72.0744
72.1388
-3.08428
-2.93425
-2.90637
-2.57615
-2.42514
-2.09437
-1.81789
-1.50456
-1.17881
-0.845935
-0.509074
-0.170118
71.3762
71.3803
71.3956
71.423
71.463
71.5154
71.5855
71.6656
71.7719
71.8818
72.0059
72.0899
72.1576
-3.08886
-2.93856
-2.91086
-2.58041
-2.42949
-2.09826
-1.82153
-1.5077
-1.18137
-0.847831
-0.510241
-0.170516
71.3786
71.3807
71.3952
71.4225
71.4625
71.5151
71.5857
71.6669
71.7748
71.8874
72.0149
72.1025
72.173
-3.09241
-2.94194
-2.91428
-2.58367
-2.43283
-2.10122
-1.82431
-1.51011
-1.18333
-0.849281
-0.511134
-0.170821
71.3794
71.3805
71.3948
71.4221
71.4621
71.5148
71.5857
71.6677
71.7768
71.8912
72.0207
72.1114
72.1841
-3.09489
-2.94406
-2.91657
-2.58585
-2.43509
-2.10321
-1.8262
-1.51173
-1.18465
-0.850262
-0.511737
-0.171026
71.3854
71.3814
71.3948
71.4221
71.462
71.5148
71.5859
71.6682
71.7779
71.8935
72.0239
72.1143
72.1903
-3.09621
-2.94558
-2.91774
-2.58701
-2.43629
-2.10417
-1.82718
-1.51254
-1.18533
-0.850758
-0.512041
-0.171129
71.4133
71.4109
71.4251
71.4512
71.4868
71.5284
71.5838
71.6295
71.6939
71.73
71.7972
71.8209
71.8512
-2.96091
-2.81343
-2.77691
-2.4559
-2.30094
-1.9836
-1.71428
-1.41461
-1.10532
-0.791419
-0.475442
-0.158608
71.4067
71.4094
71.4247
71.4509
71.4866
71.5284
71.584
71.63
71.6945
71.7319
71.7963
71.8215
71.8526
-2.96155
-2.81421
-2.77823
-2.45698
-2.30202
-1.98464
-1.71515
-1.41537
-1.10593
-0.79186
-0.47571
-0.158699
71.4048
71.4083
71.4239
71.4502
71.4861
71.5281
71.5839
71.6304
71.6953
71.7338
71.7983
71.8236
71.8555
-2.96372
-2.81687
-2.78095
-2.45937
-2.30438
-1.98672
-1.71699
-1.41694
-1.10717
-0.79277
-0.476264
-0.158886
71.4013
71.4063
71.4226
71.4491
71.4852
71.5276
71.5836
71.6309
71.6964
71.7366
71.8007
71.827
71.8595
-2.9673
-2.82062
-2.785
-2.46292
-2.30791
-1.98979
-1.71974
-1.41927
-1.10904
-0.794134
-0.477094
-0.159167
71.3988
71.4044
71.4211
71.4477
71.4841
71.5269
71.5832
71.6315
71.6978
71.7399
71.8041
71.8316
71.8645
-2.97219
-2.82569
-2.79033
-2.46761
-2.31258
-1.99383
-1.72338
-1.42236
-1.11151
-0.795934
-0.478191
-0.159538
71.3963
71.4023
71.4193
71.4461
71.4828
71.526
71.5827
71.6321
71.6995
71.7438
71.8083
71.8373
71.8708
-2.97828
-2.83184
-2.79679
-2.47333
-2.31828
-1.99877
-1.72785
-1.42614
-1.11454
-0.798146
-0.479541
-0.159995
71.3938
71.4001
71.4172
71.4443
71.4812
71.525
71.5821
71.6328
71.7014
71.7484
71.8135
71.8442
71.8782
-2.98544
-2.83903
-2.80431
-2.48001
-2.32493
-2.00454
-1.73307
-1.43057
-1.11809
-0.800741
-0.481124
-0.160531
71.3913
71.3979
71.4151
71.4423
71.4794
71.5238
71.5814
71.6336
71.7036
71.7534
71.8195
71.8522
71.887
-2.99353
-2.84707
-2.81272
-2.48751
-2.33243
-2.01105
-1.73897
-1.43558
-1.12211
-0.803681
-0.482919
-0.161139
71.3888
71.3956
71.4128
71.4401
71.4775
71.5224
71.5807
71.6344
71.7061
71.759
71.8266
71.8613
71.8971
-3.00238
-2.85585
-2.82189
-2.49573
-2.34064
-2.0182
-1.74546
-1.4411
-1.12654
-0.806926
-0.484901
-0.161811
71.3864
71.3932
71.4104
71.4378
71.4755
71.521
71.5799
71.6353
71.7088
71.7652
71.8345
71.8717
71.9086
-3.01184
-2.86519
-2.83165
-2.5045
-2.34944
-2.02587
-1.75244
-1.44704
-1.13132
-0.810427
-0.487042
-0.162537
71.384
71.3908
71.408
71.4355
71.4734
71.5195
71.579
71.6362
71.7118
71.7719
71.8434
71.8832
71.9215
-3.02172
-2.87492
-2.84183
-2.5137
-2.35867
-2.03394
-1.75981
-1.45332
-1.13637
-0.814134
-0.489309
-0.163307
71.3816
71.3884
71.4056
71.4332
71.4713
71.5179
71.5781
71.6371
71.7151
71.779
71.8532
71.896
71.936
-3.03185
-2.88488
-2.85225
-2.52315
-2.36818
-2.04229
-1.76743
-1.45984
-1.14163
-0.817989
-0.491668
-0.164108
71.3794
71.3862
71.4033
71.4308
71.4691
71.5163
71.5773
71.6382
71.7186
71.7866
71.8641
71.91
71.952
-3.04205
-2.89489
-2.86274
-2.53271
-2.37783
-2.05077
-1.7752
-1.46648
-1.14699
-0.821931
-0.494083
-0.164928
71.3773
71.384
71.401
71.4285
71.467
71.5147
71.5765
71.6393
71.7223
71.7946
71.8758
71.9252
71.9696
-3.05215
-2.90478
-2.87312
-2.54222
-2.38745
-2.05925
-1.78299
-1.47316
-1.15239
-0.825899
-0.496516
-0.165756
71.3753
71.3819
71.3988
71.4263
71.4649
71.5131
71.5758
71.6405
71.7263
71.803
71.8884
71.9415
71.9887
-3.06199
-2.91441
-2.88324
-2.55152
-2.39688
-2.06759
-1.79067
-1.47975
-1.15772
-0.829829
-0.498926
-0.166576
71.3736
71.38
71.3968
71.4243
71.4629
71.5117
71.5751
71.6418
71.7305
71.8116
71.9016
71.9588
72.0092
-3.07141
-2.92362
-2.89293
-2.56047
-2.40599
-2.07566
-1.79812
-1.48616
-1.16292
-0.833654
-0.501274
-0.167375
71.372
71.3784
71.395
71.4224
71.4611
71.5103
71.5746
71.6432
71.7347
71.8203
71.9154
71.9767
72.0306
-3.08028
-2.93228
-2.90205
-2.56893
-2.41461
-2.08333
-1.80521
-1.49227
-1.16788
-0.837313
-0.503522
-0.168141
71.3708
71.377
71.3934
71.4206
71.4594
71.509
71.5742
71.6446
71.7389
71.8289
71.9292
71.9949
72.0526
-3.08848
-2.94026
-2.91046
-2.57678
-2.42263
-2.09048
-1.81183
-1.49798
-1.17252
-0.840743
-0.50563
-0.16886
71.3699
71.3758
71.392
71.4191
71.4579
71.5079
71.5738
71.646
71.7431
71.8372
71.9429
72.0129
72.0745
-3.09591
-2.94748
-2.91806
-2.58391
-2.42992
-2.09699
-1.81788
-1.50321
-1.17677
-0.843886
-0.507563
-0.16952
71.3694
71.375
71.3908
71.4178
71.4566
71.5069
71.5735
71.6474
71.7469
71.845
71.9557
72.0301
72.0956
-3.10247
-2.95382
-2.92474
-2.59019
-2.43637
-2.10276
-1.82326
-1.50786
-1.18056
-0.846688
-0.509288
-0.170108
71.3695
71.3745
71.3899
71.4167
71.4555
71.5061
71.5734
71.6486
71.7504
71.8519
71.9674
72.0458
72.1152
-3.1081
-2.95925
-2.93043
-2.59558
-2.4419
-2.10771
-1.82787
-1.51186
-1.18382
-0.849102
-0.510774
-0.170616
71.3694
71.3742
71.3892
71.4159
71.4547
71.5054
71.5732
71.6497
71.7534
71.8578
71.9772
72.0595
72.1324
-3.11273
-2.96365
-2.93504
-2.59996
-2.44641
-2.11175
-1.83166
-1.51514
-1.1865
-0.851084
-0.511995
-0.171033
71.3717
71.3745
71.3888
71.4153
71.4541
71.5049
71.5732
71.6506
71.7557
71.8624
71.9849
72.0705
72.1464
-3.11633
-2.9671
-2.93854
-2.60332
-2.44987
-2.11484
-1.83456
-1.51765
-1.18855
-0.852602
-0.51293
-0.171352
71.3725
71.3743
71.3884
71.4149
71.4536
71.5046
71.5731
71.6511
71.7573
71.8657
71.9897
72.0785
72.1564
-3.11883
-2.96926
-2.94089
-2.60557
-2.45221
-2.1169
-1.83653
-1.51934
-1.18993
-0.853628
-0.513562
-0.171567
71.3784
71.3753
71.3884
71.4148
71.4535
71.5045
71.5731
71.6515
71.7582
71.8677
71.9922
72.0829
72.1619
-3.12016
-2.97081
-2.94209
-2.60676
-2.45345
-2.1179
-1.83755
-1.52019
-1.19063
-0.854146
-0.51388
-0.171675
71.4036
71.4026
71.4171
71.443
71.4784
71.5198
71.5748
71.6205
71.6847
71.7216
71.7879
71.8132
71.8441
-2.99281
-2.84404
-2.80515
-2.47785
-2.31816
-1.9965
-1.72261
-1.4197
-1.10805
-0.792605
-0.475776
-0.158584
71.397
71.4011
71.4167
71.4427
71.4782
71.5198
71.5749
71.6209
71.6852
71.7234
71.7867
71.8137
71.8456
-2.99351
-2.8449
-2.80655
-2.479
-2.3193
-1.9976
-1.72353
-1.42049
-1.10868
-0.793067
-0.476056
-0.158679
71.3951
71.4
71.4159
71.442
71.4776
71.5194
71.5747
71.6213
71.6859
71.7253
71.7887
71.8157
71.8485
-2.9958
-2.84771
-2.80944
-2.48153
-2.32179
-1.99978
-1.72546
-1.42213
-1.10999
-0.794023
-0.476638
-0.158875
71.3916
71.398
71.4146
71.4409
71.4767
71.5188
71.5744
71.6216
71.6868
71.7278
71.7908
71.819
71.8523
-2.99958
-2.85168
-2.81373
-2.48527
-2.32552
-2.00302
-1.72837
-1.42459
-1.11196
-0.795456
-0.477511
-0.159171
71.3891
71.396
71.413
71.4395
71.4755
71.518
71.5738
71.622
71.688
71.7309
71.7938
71.8233
71.8571
-3.00474
-2.85704
-2.81937
-2.49021
-2.33044
-2.00728
-1.73219
-1.42784
-1.11455
-0.797349
-0.478664
-0.159561
71.3865
71.3939
71.4111
71.4378
71.4741
71.517
71.5731
71.6223
71.6893
71.7344
71.7976
71.8286
71.8629
-3.01115
-2.86353
-2.82621
-2.49624
-2.33646
-2.01248
-1.73689
-1.43182
-1.11774
-0.799677
-0.480085
-0.160042
71.384
71.3917
71.409
71.4358
71.4724
71.5157
71.5723
71.6226
71.6908
71.7384
71.8021
71.8349
71.8699
-3.01869
-2.87112
-2.83417
-2.50328
-2.34349
-2.01857
-1.7424
-1.43649
-1.12148
-0.802411
-0.481753
-0.160607
71.3815
71.3893
71.4068
71.4337
71.4705
71.5143
71.5712
71.6229
71.6925
71.7428
71.8074
71.8422
71.8779
-3.02719
-2.87959
-2.84307
-2.51119
-2.35141
-2.02543
-1.74862
-1.44177
-1.12572
-0.805511
-0.483647
-0.161249
71.379
71.3869
71.4044
71.4315
71.4684
71.5127
71.5701
71.6232
71.6943
71.7475
71.8134
71.8504
71.8871
-3.03648
-2.88883
-2.85276
-2.51985
-2.36009
-2.03298
-1.75547
-1.4476
-1.1304
-0.808937
-0.48574
-0.161959
71.3765
71.3845
71.402
71.4291
71.4662
71.5109
71.5689
71.6234
71.6963
71.7526
71.8201
71.8596
71.8973
-3.04639
-2.89865
-2.86307
-2.52909
-2.36938
-2.04108
-1.76284
-1.45388
-1.13545
-0.812638
-0.488003
-0.162727
71.3741
71.382
71.3995
71.4266
71.4638
71.509
71.5675
71.6235
71.6983
71.7579
71.8274
71.8695
71.9086
-3.05673
-2.90886
-2.8738
-2.53878
-2.37914
-2.04961
-1.77062
-1.46052
-1.14079
-0.816561
-0.490404
-0.163542
71.3717
71.3796
71.397
71.4241
71.4614
71.5071
71.5661
71.6236
71.7005
71.7634
71.8353
71.8804
71.9211
-3.06731
-2.91929
-2.88478
-2.54873
-2.3892
-2.05843
-1.77869
-1.46742
-1.14636
-0.820644
-0.492904
-0.164392
71.3694
71.3773
71.3946
71.4216
71.459
71.5051
71.5647
71.6237
71.7029
71.7692
71.8438
71.892
71.9347
-3.07793
-2.92976
-2.89582
-2.55879
-2.3994
-2.06739
-1.78691
-1.47446
-1.15205
-0.824826
-0.495467
-0.165264
71.3673
71.375
71.3922
71.4191
71.4566
71.503
71.5632
71.6238
71.7053
71.7751
71.8529
71.9045
71.9495
-3.08843
-2.9401
-2.90674
-2.56879
-2.40957
-2.07636
-1.79516
-1.48154
-1.15777
-0.829039
-0.498051
-0.166144
71.3652
71.3729
71.3899
71.4167
71.4542
71.501
71.5618
71.6239
71.7078
71.7811
71.8625
71.9177
71.9654
-3.09863
-2.95013
-2.91736
-2.57856
-2.41954
-2.08519
-1.8033
-1.48854
-1.16344
-0.833215
-0.500614
-0.167017
71.3634
71.371
71.3878
71.4145
71.452
71.4991
71.5605
71.624
71.7105
71.7873
71.8725
71.9316
71.9822
-3.10837
-2.95971
-2.92751
-2.58796
-2.42916
-2.09373
-1.81119
-1.49535
-1.16896
-0.837285
-0.503114
-0.167869
71.3619
71.3693
71.3859
71.4124
71.4499
71.4972
71.5592
71.6242
71.7131
71.7935
71.8829
71.9459
71.9999
-3.11753
-2.96869
-2.93705
-2.59684
-2.43827
-2.10185
-1.81871
-1.50184
-1.17424
-0.84118
-0.505509
-0.168686
71.3606
71.3678
71.3841
71.4105
71.4479
71.4955
71.558
71.6244
71.7158
71.7995
71.8933
71.9604
72.0178
-3.12597
-2.97696
-2.94584
-2.60507
-2.44674
-2.10941
-1.82574
-1.50792
-1.17918
-0.844834
-0.507757
-0.169453
71.3597
71.3666
71.3827
71.4088
71.4461
71.4939
71.557
71.6247
71.7184
71.8054
71.9034
71.9747
72.0357
-3.13359
-2.98443
-2.95377
-2.61253
-2.45443
-2.1163
-1.83216
-1.51348
-1.18371
-0.848184
-0.50982
-0.170158
71.3591
71.3657
71.3814
71.4074
71.4446
71.4926
71.5561
71.625
71.7208
71.8108
71.913
71.9882
72.0527
-3.14031
-2.99097
-2.96072
-2.61911
-2.46123
-2.12241
-1.83786
-1.51843
-1.18775
-0.851173
-0.511661
-0.170787
71.3591
71.3652
71.3805
71.4062
71.4433
71.4914
71.5554
71.6253
71.723
71.8156
71.9215
72.0004
72.0683
-3.14606
-2.99655
-2.96664
-2.62474
-2.46706
-2.12764
-1.84276
-1.52268
-1.19122
-0.853748
-0.513248
-0.171329
71.359
71.3648
71.3797
71.4053
71.4423
71.4905
71.5548
71.6256
71.7248
71.8196
71.9285
72.0109
72.0819
-3.15078
-3.00108
-2.97143
-2.62932
-2.47181
-2.13192
-1.84678
-1.52618
-1.19408
-0.855865
-0.514553
-0.171776
71.3613
71.3652
71.3793
71.4046
71.4416
71.4898
71.5543
71.6258
71.7262
71.8227
71.9339
72.0192
72.0927
-3.15444
-3.0046
-2.97507
-2.63283
-2.47546
-2.13517
-1.84986
-1.52885
-1.19626
-0.857485
-0.515553
-0.172117
71.3621
71.365
71.3788
71.4041
71.441
71.4892
71.554
71.6259
71.7271
71.8248
71.9369
72.0248
72.1003
-3.15698
-3.00682
-2.9775
-2.63517
-2.47792
-2.13735
-1.85195
-1.53065
-1.19774
-0.858581
-0.516229
-0.172348
71.368
71.3659
71.3788
71.404
71.4409
71.4891
71.5539
71.626
71.7278
71.8262
71.9385
72.0264
72.1041
-3.15831
-3.00838
-2.97874
-2.6364
-2.47923
-2.13841
-1.85302
-1.53156
-1.19848
-0.859135
-0.51657
-0.172464
71.3925
71.3921
71.4067
71.4323
71.4673
71.5083
71.5628
71.6084
71.6723
71.7101
71.7756
71.8025
71.834
-3.03659
-2.88512
-2.84295
-2.50703
-2.34093
-2.01339
-1.73337
-1.42611
-1.11135
-0.793926
-0.476048
-0.158487
71.3859
71.3906
71.4062
71.4319
71.4671
71.5083
71.5628
71.6088
71.6728
71.7118
71.7743
71.8029
71.8355
-3.03737
-2.88608
-2.84446
-2.50826
-2.34216
-2.01456
-1.73435
-1.42695
-1.11202
-0.794416
-0.476345
-0.158587
71.384
71.3895
71.4054
71.4312
71.4665
71.5078
71.5626
71.609
71.6733
71.7135
71.7761
71.8048
71.8382
-3.03985
-2.88911
-2.84757
-2.51097
-2.34483
-2.01689
-1.73641
-1.4287
-1.11342
-0.795433
-0.476963
-0.158796
71.3805
71.3875
71.404
71.43
71.4655
71.5071
71.562
71.6091
71.674
71.7158
71.7778
71.8078
71.8418
-3.04392
-2.89339
-2.85219
-2.51497
-2.34882
-2.02035
-1.73951
-1.43132
-1.11551
-0.796959
-0.477892
-0.15911
71.3779
71.3855
71.4024
71.4285
71.4642
71.5061
71.5613
71.6092
71.6748
71.7185
71.7803
71.8116
71.8462
-3.04946
-2.89914
-2.85827
-2.52027
-2.3541
-2.0249
-1.7436
-1.43478
-1.11828
-0.798977
-0.479122
-0.159526
71.3753
71.3833
71.4005
71.4268
71.4625
71.5049
71.5603
71.6091
71.6757
71.7215
71.7835
71.8164
71.8515
-3.05634
-2.90611
-2.86563
-2.52672
-2.36055
-2.03047
-1.74861
-1.43903
-1.12168
-0.801461
-0.480638
-0.16004
71.3728
71.381
71.3983
71.4247
71.4607
71.5034
71.5591
71.609
71.6766
71.7247
71.7872
71.822
71.8577
-3.0644
-2.91424
-2.87419
-2.53425
-2.36809
-2.03698
-1.75449
-1.44402
-1.12568
-0.804382
-0.482421
-0.160644
71.3702
71.3786
71.396
71.4225
71.4586
71.5016
71.5577
71.6087
71.6776
71.7281
71.7914
71.8282
71.8647
-3.07349
-2.92332
-2.88376
-2.54272
-2.37659
-2.04433
-1.76115
-1.44968
-1.13021
-0.8077
-0.484448
-0.161332
71.3677
71.3761
71.3935
71.42
71.4562
71.4997
71.556
71.6082
71.6785
71.7317
71.7959
71.8349
71.8724
-3.08341
-2.93319
-2.89417
-2.55197
-2.3859
-2.05241
-1.76849
-1.45592
-1.13523
-0.811371
-0.486693
-0.162094
71.3652
71.3736
71.391
71.4175
71.4538
71.4975
71.5542
71.6075
71.6794
71.7352
71.8007
71.8421
71.8806
-3.09396
-2.94366
-2.90523
-2.56186
-2.39588
-2.0611
-1.7764
-1.46267
-1.14065
-0.815343
-0.489123
-0.162919
71.3627
71.371
71.3884
71.4148
71.4511
71.4952
71.5523
71.6067
71.6803
71.7386
71.8056
71.8496
71.8894
-3.10493
-2.95454
-2.91673
-2.57221
-2.40636
-2.07025
-1.78475
-1.4698
-1.14639
-0.819559
-0.491704
-0.163796
71.3603
71.3685
71.3858
71.4121
71.4484
71.4928
71.5501
71.6056
71.681
71.7419
71.8105
71.8572
71.8986
-3.11613
-2.96563
-2.92848
-2.58285
-2.41717
-2.07972
-1.79342
-1.47722
-1.15238
-0.823955
-0.494398
-0.164713
71.3579
71.3661
71.3832
71.4094
71.4456
71.4902
71.5479
71.6044
71.6817
71.7449
71.8156
71.865
71.9082
-3.12735
-2.97674
-2.94028
-2.59359
-2.42812
-2.08936
-1.80226
-1.48481
-1.15851
-0.828463
-0.497162
-0.165654
71.3557
71.3638
71.3807
71.4067
71.4429
71.4876
71.5456
71.603
71.6823
71.7477
71.8206
71.8728
71.9182
-3.13839
-2.98767
-2.95192
-2.60426
-2.43904
-2.099
-1.81114
-1.49245
-1.16469
-0.833012
-0.499954
-0.166605
71.3536
71.3616
71.3783
71.4041
71.4402
71.485
71.5433
71.6015
71.6828
71.7504
71.8257
71.8807
71.9284
-3.14909
-2.99826
-2.96322
-2.61469
-2.44975
-2.10849
-1.81991
-1.5
-1.17081
-0.837526
-0.502727
-0.167551
71.3518
71.3596
71.376
71.4017
71.4375
71.4824
71.541
71.6001
71.6833
71.753
71.8307
71.8887
71.939
-3.15929
-3.00834
-2.974
-2.6247
-2.46008
-2.11768
-1.82842
-1.50735
-1.17678
-0.84193
-0.505434
-0.168475
71.3501
71.3578
71.374
71.3994
71.435
71.4799
71.5387
71.5986
71.6838
71.7554
71.8358
71.8968
71.9499
-3.16883
-3.01777
-2.98411
-2.63415
-2.46986
-2.12641
-1.83654
-1.51438
-1.18249
-0.84615
-0.508031
-0.169362
71.3488
71.3562
71.3721
71.3973
71.4327
71.4776
71.5366
71.5972
71.6842
71.7577
71.8408
71.9048
71.9608
-3.17759
-3.02643
-2.99341
-2.6429
-2.47894
-2.13454
-1.84412
-1.52095
-1.18785
-0.850113
-0.510471
-0.170196
71.3478
71.355
71.3705
71.3954
71.4307
71.4755
71.5347
71.596
71.6846
71.7599
71.8456
71.9125
71.9713
-3.18549
-3.03421
-3.00178
-2.65082
-2.48719
-2.14195
-1.85105
-1.52697
-1.19276
-0.853749
-0.512712
-0.170962
71.3472
71.354
71.3692
71.3938
71.4288
71.4736
71.533
71.5948
71.685
71.7618
71.8499
71.9195
71.9809
-3.19242
-3.04102
-3.0091
-2.6578
-2.49448
-2.14852
-1.8572
-1.53233
-1.19714
-0.856995
-0.514714
-0.171647
71.3472
71.3534
71.3681
71.3924
71.4273
71.472
71.5315
71.5939
71.6853
71.7634
71.8534
71.9255
71.9893
-3.19833
-3.04681
-3.01532
-2.66376
-2.50071
-2.15414
-1.8625
-1.53694
-1.20091
-0.859793
-0.516441
-0.172239
71.3471
71.3531
71.3673
71.3913
71.426
71.4707
71.5303
71.593
71.6855
71.7646
71.8559
71.9303
71.996
-3.20317
-3.05149
-3.02034
-2.6686
-2.5058
-2.15874
-1.86683
-1.54073
-1.20401
-0.862093
-0.517861
-0.172725
71.3493
71.3534
71.3668
71.3906
71.4251
71.4697
71.5293
71.5924
71.6855
71.7654
71.8574
71.9336
72.0007
-3.20691
-3.05513
-3.02416
-2.6723
-2.5097
-2.16224
-1.87015
-1.54362
-1.20638
-0.863855
-0.51895
-0.173098
71.35
71.3532
71.3663
71.39
71.4244
71.4689
71.5286
71.5919
71.6855
71.7658
71.8578
71.9352
72.0032
-3.20949
-3.05741
-3.02671
-2.67477
-2.51233
-2.16458
-1.87241
-1.54558
-1.20799
-0.865048
-0.519686
-0.173351
71.3559
71.3541
71.3663
71.3899
71.4242
71.4687
71.5283
71.5917
71.6856
71.7663
71.857
71.9289
72.0042
-3.21084
-3.05899
-3.02801
-2.67606
-2.51373
-2.16572
-1.87357
-1.54656
-1.2088
-0.865651
-0.520059
-0.173478
71.3795
71.3794
71.3938
71.4191
71.4535
71.4941
71.5477
71.5933
71.6568
71.6955
71.7601
71.7887
71.8208
-3.0926
-2.93682
-2.89048
-2.54335
-2.36912
-2.03402
-1.74627
-1.43356
-1.11499
-0.795188
-0.476136
-0.158274
71.3729
71.3779
71.3933
71.4187
71.4533
71.4939
71.5478
71.5936
71.6571
71.6971
71.7587
71.7891
71.8223
-3.09349
-2.93792
-2.89212
-2.5447
-2.37045
-2.03528
-1.74733
-1.43447
-1.11571
-0.795714
-0.476452
-0.15838
71.371
71.3767
71.3925
71.4179
71.4526
71.4934
71.5473
71.5936
71.6575
71.6986
71.7602
71.7908
71.8249
-3.09622
-2.94123
-2.89553
-2.54764
-2.37335
-2.0378
-1.74956
-1.43635
-1.11721
-0.796807
-0.477117
-0.158604
71.3674
71.3747
71.3911
71.4166
71.4515
71.4926
71.5466
71.5935
71.6579
71.7005
71.7615
71.7934
71.8281
-3.10068
-2.94591
-2.90058
-2.55198
-2.37768
-2.04154
-1.7529
-1.43918
-1.11947
-0.79845
-0.478117
-0.158942
71.3648
71.3726
71.3894
71.4151
71.45
71.4914
71.5456
71.5932
71.6582
71.7027
71.7635
71.7968
71.832
-3.10673
-2.95219
-2.90721
-2.55772
-2.38341
-2.04646
-1.75731
-1.44291
-1.12245
-0.800625
-0.479443
-0.159391
71.3622
71.3704
71.3874
71.4132
71.4483
71.4899
71.5443
71.5927
71.6586
71.705
71.7659
71.8008
71.8366
-3.11422
-2.95978
-2.91526
-2.56472
-2.39043
-2.05249
-1.76274
-1.4475
-1.12612
-0.803307
-0.48108
-0.159946
71.3596
71.368
71.3851
71.411
71.4462
71.4881
71.5427
71.5919
71.6588
71.7073
71.7685
71.8053
71.8417
-3.12299
-2.96862
-2.92461
-2.57289
-2.39862
-2.05955
-1.7691
-1.4529
-1.13044
-0.806465
-0.483008
-0.1606
71.357
71.3655
71.3827
71.4086
71.4438
71.486
71.5408
71.5909
71.6589
71.7095
71.7712
71.8101
71.8472
-3.13285
-2.97846
-2.93504
-2.58206
-2.40786
-2.06752
-1.77632
-1.45903
-1.13536
-0.810059
-0.485204
-0.161345
71.3544
71.3629
71.3801
71.406
71.4412
71.4836
71.5385
71.5895
71.6587
71.7115
71.7738
71.8148
71.8529
-3.14358
-2.98916
-2.94638
-2.5921
-2.418
-2.0763
-1.78428
-1.46581
-1.1408
-0.814043
-0.487641
-0.162173
71.3519
71.3603
71.3774
71.4032
71.4384
71.4809
71.5361
71.5877
71.6583
71.713
71.776
71.8193
71.8584
-3.15496
-3.00049
-2.95841
-2.60281
-2.42886
-2.08574
-1.79287
-1.47314
-1.14669
-0.818361
-0.490284
-0.163071
71.3493
71.3577
71.3747
71.4003
71.4354
71.4781
71.5333
71.5856
71.6576
71.7139
71.7776
71.8231
71.8633
-3.16676
-3.01222
-2.97091
-2.61403
-2.44028
-2.0957
-1.80196
-1.48092
-1.15295
-0.822954
-0.493097
-0.164028
71.3468
71.3551
71.3719
71.3974
71.4324
71.475
71.5303
71.5831
71.6565
71.714
71.7785
71.826
71.8675
-3.17877
-3.02416
-2.98365
-2.62555
-2.45205
-2.10602
-1.81141
-1.48901
-1.15948
-0.827751
-0.496038
-0.16503
71.3444
71.3526
71.3692