/*--------------------------------*- C++ -*----------------------------------*\
  =========                 |
  \\      /  F ield         | OpenFOAM: The Open Source CFD Toolbox
   \\    /   O peration     | Website:  https://openfoam.org
    \\  /    A nd           | Version:  11
     \\/     M anipulation  |
\*---------------------------------------------------------------------------*/
FoamFile
{
    format      ascii;
    class       volVectorField;
    location    "1600";
    object      U;
}
// * * * * * * * * * * * * * * * * * * * * * * * * * * * * * * * * * * * * * //

dimensions      [0 1 -1 0 0 0 0];

internalField   nonuniform List<vector> 
729
(
(1.09588 -2.797 -0.544397)
(0.840114 -1.90404 -0.562412)
(1.46442 -1.28707 -0.559062)
(1.88494 -0.742499 -0.447085)
(2.19173 -0.422707 -0.312299)
(2.35489 -0.236055 -0.150227)
(2.48931 -0.135153 0.131284)
(1.69782 -0.0156557 0.44426)
(3.22765 1.24433 0.333081)
(-0.602812 0.337832 0.154958)
(0.0405402 0.846209 0.323791)
(0.205014 0.418469 0.168159)
(0.633377 0.321358 0.136164)
(0.95156 0.176162 0.0973457)
(1.15602 0.0287725 0.0721987)
(1.1737 -0.144277 0.0731105)
(0.666346 -0.190406 0.0540335)
(0.346269 1.7558 0.0447902)
(-0.198031 -0.09245 -0.0904899)
(0.116758 -0.673184 0.0821581)
(0.217719 -0.778028 0.102294)
(0.409418 -0.705066 0.141146)
(0.566793 -0.544651 0.139195)
(0.639027 -0.333804 0.106958)
(0.584483 -0.0416491 0.040466)
(0.20996 0.500394 -0.0821115)
(-0.233101 2.07112 -0.191903)
(0.0473075 -0.40166 0.068868)
(0.144271 -0.865618 0.103632)
(0.212242 -0.96496 0.0774778)
(0.304243 -0.880779 0.0738039)
(0.374014 -0.658506 0.0770664)
(0.374396 -0.314029 0.0774743)
(0.30115 0.182406 0.0392088)
(-0.00782882 1.03896 -0.0855798)
(-0.310138 2.16704 -0.236671)
(0.0610439 -0.609585 0.0435729)
(0.124955 -1.04081 0.0507507)
(0.17224 -1.11759 0.0433207)
(0.22089 -1.01187 0.0286698)
(0.249789 -0.737871 0.0214146)
(0.228146 -0.310394 0.0315236)
(0.141245 0.324553 0.0277868)
(-0.127921 1.3523 -0.0703458)
(-0.287868 2.11707 -0.209039)
(0.0490402 -0.736389 0.0339276)
(0.0876993 -1.13136 0.0356207)
(0.112035 -1.19635 0.0266877)
(0.133515 -1.06545 0.0117887)
(0.138568 -0.738976 -0.0038285)
(0.108814 -0.249413 -0.000507771)
(0.013586 0.47685 0.00913297)
(-0.203736 1.53795 -0.0628203)
(-0.253261 2.00831 -0.17627)
(0.0289256 -0.832131 0.0202237)
(0.0477746 -1.18677 0.0193378)
(0.0571213 -1.2399 0.0128292)
(0.0625827 -1.08509 0.00172734)
(0.05528 -0.708191 -0.0137672)
(0.0176666 -0.16372 -0.0171232)
(-0.0823366 0.63177 -0.00602354)
(-0.245895 1.64544 -0.0587741)
(-0.220457 1.8756 -0.147274)
(0.0129699 -0.881078 0.0115033)
(0.0179842 -1.2089 0.0104279)
(0.0172796 -1.25316 0.00476787)
(0.0133286 -1.07634 -0.00330981)
(0.000399499 -0.657692 -0.0153431)
(-0.0475819 -0.0583172 -0.0261598)
(-0.151026 0.764866 -0.0201123)
(-0.267363 1.70544 -0.0592482)
(-0.191085 1.75121 -0.126407)
(0.00583769 -0.901001 0.00781499)
(0.00443876 -1.21595 0.00637923)
(-0.000685929 -1.25305 0.00202527)
(-0.00920998 -1.06109 -0.00429643)
(-0.0266118 -0.608027 -0.0142242)
(-0.0958383 0.0899157 -0.0287488)
(-0.186836 0.917837 -0.031717)
(-0.247238 1.70998 -0.0605471)
(-0.146071 1.55919 -0.100532)
(0.442746 -3.98227 -0.516423)
(0.834939 -2.76501 -0.500205)
(1.33719 -1.62956 -0.465701)
(1.72063 -0.942374 -0.365124)
(1.98612 -0.555109 -0.232504)
(2.20305 -0.298964 -0.0542997)
(2.44653 -0.0346882 0.249431)
(2.23328 0.71212 0.562995)
(3.79693 2.52357 0.490486)
(0.0466199 0.884297 0.38999)
(0.172049 0.188189 0.228241)
(0.518878 -0.0888164 0.111626)
(0.896697 -0.155341 0.0564251)
(1.16696 -0.184243 0.033628)
(1.30678 -0.201138 0.0422249)
(1.28971 -0.179213 0.0911248)
(0.834101 0.220669 0.124258)
(0.836469 2.67004 0.168935)
(-0.00304183 -0.88973 0.105499)
(0.21838 -1.21803 0.16795)
(0.371151 -1.04674 0.224628)
(0.575537 -0.795847 0.209118)
(0.736789 -0.549977 0.159114)
(0.783556 -0.290247 0.0977432)
(0.68216 0.0725578 0.0316012)
(0.278065 0.758218 -0.0603555)
(0.107613 2.7839 -0.120453)
(0.0837733 -0.821743 0.115949)
(0.156572 -1.15144 0.115088)
(0.229838 -1.0876 0.109957)
(0.334865 -0.86995 0.112292)
(0.422268 -0.568865 0.100655)
(0.433456 -0.195504 0.0706154)
(0.355176 0.315545 0.0203634)
(0.064162 1.15097 -0.0606881)
(-0.0526857 2.8223 -0.173832)
(0.0702898 -1.0067 0.0694912)
(0.143002 -1.2515 0.0778904)
(0.187917 -1.1509 0.0651165)
(0.232178 -0.9269 0.0509694)
(0.257331 -0.584941 0.0390738)
(0.236546 -0.136029 0.0334288)
(0.170932 0.462388 0.0153554)
(-0.0407299 1.35688 -0.0324472)
(-0.0809137 2.69252 -0.139223)
(0.0514327 -1.08214 0.0484834)
(0.0948437 -1.26884 0.0490588)
(0.116953 -1.16454 0.0372627)
(0.137335 -0.934572 0.0196608)
(0.140881 -0.567291 0.00102609)
(0.108289 -0.0753566 -0.000791039)
(0.0482194 0.572866 0.00178236)
(-0.112899 1.48504 -0.0177215)
(-0.0899785 2.50898 -0.106332)
(0.0293856 -1.14311 0.0274643)
(0.0525385 -1.2749 0.0267125)
(0.0600191 -1.16975 0.017503)
(0.0654632 -0.930785 0.0025749)
(0.0563234 -0.544444 -0.0163217)
(0.0210088 -0.0176707 -0.0213324)
(-0.0358214 0.665946 -0.0107413)
(-0.156821 1.56953 -0.0126178)
(-0.0963139 2.32795 -0.0834088)
(0.0137955 -1.17004 0.0148673)
(0.0219281 -1.26982 0.0131293)
(0.021179 -1.1633 0.00625163)
(0.0164862 -0.914854 -0.00459015)
(0.000214445 -0.51 -0.0196981)
(-0.0372943 0.0412552 -0.0318075)
(-0.0951352 0.745874 -0.0220323)
(-0.182664 1.62379 -0.0141145)
(-0.099214 2.17571 -0.0683404)
(0.00683767 -1.18059 0.00940787)
(0.00800518 -1.26563 0.00718031)
(0.00337254 -1.15493 0.00158184)
(-0.00674634 -0.8972 -0.00635335)
(-0.0283494 -0.472667 -0.0164682)
(-0.0704627 0.107393 -0.0295436)
(-0.123561 0.817048 -0.0269171)
(-0.174187 1.61505 -0.0197739)
(-0.0883584 1.94225 -0.0515435)
(0.427241 -4.0181 -0.359373)
(0.878869 -2.89409 -0.363949)
(1.3763 -1.66616 -0.337453)
(1.7407 -0.95856 -0.267434)
(1.98354 -0.573609 -0.17285)
(2.2073 -0.325748 -0.0455206)
(2.44586 -0.0370767 0.158131)
(2.33034 0.913032 0.370021)
(3.73397 2.94611 0.410412)
(0.319597 0.753182 0.208078)
(0.325764 0.0407224 0.107467)
(0.64418 -0.187615 0.0364202)
(0.976982 -0.238593 0.00938075)
(1.20822 -0.245975 0.00556387)
(1.31622 -0.239929 0.0230394)
(1.25897 -0.178299 0.0677065)
(0.788574 0.353224 0.119559)
(0.794772 2.97922 0.24531)
(0.033932 -1.17538 0.130968)
(0.267618 -1.31143 0.169322)
(0.446326 -1.04573 0.162336)
(0.637728 -0.778384 0.132785)
(0.77155 -0.52911 0.0952055)
(0.788317 -0.254523 0.0580514)
(0.649885 0.150249 0.0210749)
(0.204353 0.941 -0.0151469)
(0.0582308 3.12237 0.03097)
(0.0824328 -0.943886 0.0975694)
(0.142525 -1.16674 0.0947247)
(0.226713 -1.02516 0.092709)
(0.344983 -0.790396 0.0910902)
(0.430166 -0.495306 0.0749066)
(0.426602 -0.119755 0.0473543)
(0.327644 0.425288 0.00929355)
(0.00931176 1.36223 -0.0340567)
(-0.0947275 3.17354 -0.0423913)
(0.066569 -1.11292 0.0586818)
(0.136284 -1.24703 0.0564221)
(0.181781 -1.083 0.0453843)
(0.226975 -0.835062 0.036668)
(0.248243 -0.48746 0.030023)
(0.218883 -0.0374143 0.0216224)
(0.142716 0.579078 0.00191626)
(-0.0758884 1.54079 -0.0294719)
(-0.10761 3.00188 -0.0478725)
(0.0481737 -1.16219 0.0370476)
(0.0905468 -1.24871 0.0327064)
(0.111934 -1.0938 0.0222149)
(0.132752 -0.841569 0.00921013)
(0.130507 -0.467989 -0.00200075)
(0.0888925 0.0285252 -0.00480914)
(0.021374 0.684719 -0.00976747)
(-0.137936 1.63748 -0.0291832)
(-0.106577 2.76529 -0.0461862)
(0.0274222 -1.21423 0.0205033)
(0.050873 -1.25488 0.0168566)
(0.0574559 -1.10197 0.0086081)
(0.0611424 -0.840297 -0.00312866)
(0.0471104 -0.445138 -0.016656)
(0.00377339 0.0841153 -0.0220631)
(-0.0576955 0.768214 -0.0209921)
(-0.175141 1.69923 -0.0312994)
(-0.107489 2.54744 -0.0451426)
(0.0127665 -1.2366 0.0107652)
(0.0214053 -1.24986 0.00801549)
(0.0198803 -1.0975 0.00181598)
(0.0132855 -0.826013 -0.00728715)
(-0.00777168 -0.415202 -0.0199676)
(-0.0504861 0.134219 -0.0300596)
(-0.109836 0.835726 -0.0299602)
(-0.194213 1.73656 -0.0345291)
(-0.106287 2.37352 -0.0435861)
(0.00631798 -1.24489 0.00690208)
(0.00798996 -1.2452 0.00443029)
(0.00280566 -1.08944 -0.000656801)
(-0.00931457 -0.808082 -0.0078598)
(-0.0346425 -0.381386 -0.0176661)
(-0.0767231 0.185527 -0.0281542)
(-0.12873 0.888028 -0.0314581)
(-0.178385 1.71152 -0.0341629)
(-0.0918541 2.12274 -0.0373505)
(0.440817 -4.0591 -0.171878)
(0.9111 -2.9292 -0.171864)
(1.40965 -1.66219 -0.160616)
(1.76845 -0.948922 -0.129978)
(2.00383 -0.571025 -0.0845527)
(2.22993 -0.332194 -0.0211738)
(2.46275 -0.0361351 0.0759261)
(2.35826 0.975282 0.172654)
(3.66866 3.07324 0.212697)
(0.387108 0.667005 0.0805506)
(0.393963 0.0119803 0.0470412)
(0.703742 -0.192116 0.012627)
(1.01615 -0.241237 -0.00162297)
(1.22749 -0.248508 -0.00187441)
(1.31663 -0.241567 0.0099567)
(1.23199 -0.171249 0.0356314)
(0.744728 0.40183 0.0687781)
(0.724646 3.02741 0.159366)
(0.0458504 -1.23976 0.0816691)
(0.296313 -1.31075 0.0935088)
(0.492341 -1.03154 0.0827423)
(0.670704 -0.764901 0.0641054)
(0.782837 -0.514388 0.0448523)
(0.775056 -0.230068 0.0271916)
(0.606616 0.199351 0.0112386)
(0.130906 1.04888 0.00202055)
(-0.0183697 3.19713 0.0531956)
(0.0811571 -0.994062 0.0489645)
(0.139197 -1.16983 0.0497641)
(0.234256 -1.00725 0.0526165)
(0.355267 -0.765024 0.0499941)
(0.429169 -0.466038 0.03913)
(0.407407 -0.076892 0.0228719)
(0.284804 0.502137 0.00304948)
(-0.0601159 1.51621 -0.0132962)
(-0.165785 3.28389 0.00629905)
(0.0641033 -1.1524 0.0318342)
(0.132797 -1.24091 0.0302963)
(0.176847 -1.05407 0.0255805)
(0.219951 -0.792023 0.0218414)
(0.235155 -0.438586 0.0174231)
(0.194459 0.0221645 0.0103354)
(0.101536 0.66966 -0.00174787)
(-0.131866 1.70154 -0.0144975)
(-0.165068 3.11434 -0.00365006)
(0.0460183 -1.19424 0.019307)
(0.0871361 -1.23842 0.0171676)
(0.106913 -1.05986 0.0118968)
(0.124942 -0.791781 0.00505695)
(0.11546 -0.408341 -0.000800324)
(0.0641597 0.0987334 -0.00362534)
(-0.0168801 0.781005 -0.00798545)
(-0.18268 1.78859 -0.0157829)
(-0.15167 2.8627 -0.00655128)
(0.0260069 -1.24183 0.0106919)
(0.0484658 -1.24209 0.00872648)
(0.0533145 -1.06548 0.0042438)
(0.054132 -0.787097 -0.00243412)
(0.0342134 -0.380473 -0.0099112)
(-0.0175865 0.159336 -0.0134406)
(-0.0902717 0.865589 -0.0139593)
(-0.211037 1.83765 -0.0172539)
(-0.142962 2.63128 -0.00843685)
(0.0117331 -1.26117 0.00547216)
(0.0199728 -1.23537 0.0039713)
(0.0169624 -1.0598 0.000449702)
(0.00776344 -0.771731 -0.00495115)
(-0.0181943 -0.349585 -0.0122101)
(-0.0675499 0.210182 -0.0179093)
(-0.135287 0.930695 -0.0184566)
(-0.222055 1.86251 -0.0186264)
(-0.133769 2.4486 -0.0092184)
(0.00579408 -1.26798 0.00368267)
(0.00705845 -1.22974 0.00222339)
(0.000720304 -1.05096 -0.000762924)
(-0.0135842 -0.753238 -0.00512115)
(-0.0428334 -0.316253 -0.0108983)
(-0.0887909 0.258347 -0.0166768)
(-0.145853 0.975778 -0.0185286)
(-0.198099 1.82141 -0.0173476)
(-0.111239 2.1864 -0.00807905)
(0.447487 -4.09887 0.00920463)
(0.92336 -2.94181 0.00300427)
(1.42176 -1.66031 0.00230706)
(1.77939 -0.944522 0.00168329)
(2.01295 -0.568839 0.00136091)
(2.23942 -0.332898 0.00117252)
(2.46934 -0.0343785 0.00104)
(2.36588 0.992917 0.000806907)
(3.64795 3.10602 0.000223381)
(0.403208 0.646598 -0.00143557)
(0.41329 0.00474368 0.00195132)
(0.721647 -0.191442 0.00217167)
(1.0284 -0.239008 0.00158883)
(1.23377 -0.246675 0.0011981)
(1.31666 -0.24025 0.000964204)
(1.22287 -0.167996 0.00078753)
(0.729295 0.415423 0.000605643)
(0.701058 3.02741 0.000336499)
(0.0512993 -1.25165 -0.00469532)
(0.307818 -1.31123 0.00141534)
(0.507304 -1.02846 0.0017348)
(0.680819 -0.76044 0.00100207)
(0.785432 -0.508779 0.000708359)
(0.768904 -0.221099 0.000582959)
(0.58976 0.216324 0.000479086)
(0.103253 1.08504 0.000358519)
(-0.0467613 3.19849 0.000189938)
(0.0814683 -1.01132 -0.00434788)
(0.139551 -1.17298 0.000380633)
(0.237809 -1.00453 0.000369313)
(0.358539 -0.758883 -1.89036e-05)
(0.427593 -0.457066 3.36793e-05)
(0.398661 -0.0619915 0.000139095)
(0.266799 0.529527 0.00019871)
(-0.087767 1.56894 0.000198565)
(-0.193348 3.30056 0.00011607)
(0.0636823 -1.1633 -0.00177073)
(0.131602 -1.23821 -0.00109048)
(0.174752 -1.04549 -0.000523865)
(0.216745 -0.778763 -0.000438227)
(0.229287 -0.422686 -0.00031121)
(0.183824 0.0432187 -0.000157213)
(0.0837251 0.703279 -1.10194e-05)
(-0.15503 1.75937 7.55937e-05)
(-0.188186 3.13601 7.15463e-05)
(0.0451289 -1.20346 -0.00084969)
(0.0857625 -1.23463 -0.000446934)
(0.104742 -1.04894 -0.000357376)
(0.121283 -0.77522 -0.000400073)
(0.108768 -0.387751 -0.000384892)
(0.0534083 0.124268 -0.000289305)
(-0.0335736 0.817966 -0.000137548)
(-0.201965 1.84472 -1.77517e-05)
(-0.170361 2.88188 3.51502e-05)
(0.0254307 -1.24933 -0.000516417)
(0.047389 -1.23712 -0.000337378)
(0.0514363 -1.0532 -0.000297061)
(0.050988 -0.768761 -0.00032254)
(0.0284021 -0.357316 -0.000345954)
(-0.0270823 0.187527 -0.000306101)
(-0.104983 0.904039 -0.000193107)
(-0.227296 1.89021 -7.80373e-05)
(-0.158119 2.64728 5.36543e-06)
(0.0113121 -1.26761 -0.000430395)
(0.0192826 -1.2297 -0.000309137)
(0.0156346 -1.04683 -0.000278351)
(0.00525443 -0.752731 -0.000280744)
(-0.022907 -0.325527 -0.000289539)
(-0.0754227 0.239609 -0.000266739)
(-0.147501 0.969334 -0.000200086)
(-0.235537 1.91132 -0.000108303)
(-0.145974 2.46251 -1.40774e-05)
(0.00547544 -1.27389 -1.44725e-05)
(0.00654063 -1.22371 -7.19116e-05)
(-0.000332051 -1.03767 -0.000113508)
(-0.0156388 -0.733942 -0.000150419)
(-0.0466283 -0.291976 -0.000181816)
(-0.0948023 0.287644 -0.000206965)
(-0.154991 1.01315 -0.000176846)
(-0.208674 1.86579 -0.000115722)
(-0.120418 2.19823 -2.46552e-05)
(0.434782 -4.06582 0.205458)
(0.909898 -2.93707 0.180257)
(1.4094 -1.66431 0.165776)
(1.76838 -0.949584 0.133322)
(2.00382 -0.571109 0.0871507)
(2.22999 -0.332141 0.0234108)
(2.46277 -0.0359569 -0.0739176)
(2.35827 0.975524 -0.17115)
(3.66867 3.07342 -0.212478)
(0.39474 0.663322 -0.0836073)
(0.393494 0.00536269 -0.0416101)
(0.704526 -0.193473 -0.00732682)
(1.01604 -0.241471 0.00497136)
(1.22729 -0.248384 0.00426931)
(1.3165 -0.241366 -0.00806124)
(1.23187 -0.170984 -0.0341057)
(0.74452 0.402258 -0.0676617)
(0.724627 3.02791 -0.158921)
(0.049203 -1.23945 -0.0953963)
(0.297816 -1.31602 -0.0944137)
(0.494265 -1.0336 -0.0800875)
(0.670913 -0.765025 -0.0621841)
(0.782661 -0.514167 -0.0433884)
(0.774843 -0.229744 -0.0260235)
(0.606403 0.199752 -0.0103036)
(0.130641 1.04946 -0.00136274)
(-0.0184842 3.1977 -0.0529718)
(0.0833367 -0.986353 -0.0573071)
(0.137971 -1.16929 -0.0530043)
(0.235808 -1.00733 -0.053133)
(0.355825 -0.764686 -0.0501758)
(0.429086 -0.465747 -0.0390508)
(0.407267 -0.0765283 -0.0226042)
(0.284623 0.502603 -0.00266635)
(-0.0603624 1.5169 0.0136595)
(-0.16593 3.28449 -0.00617238)
(0.06528 -1.14821 -0.0348197)
(0.133718 -1.23905 -0.0319367)
(0.177275 -1.05383 -0.0265305)
(0.219996 -0.791452 -0.0227083)
(0.235123 -0.438128 -0.0180461)
(0.194369 0.0226138 -0.0106615)
(0.101391 0.670188 0.0017168)
(-0.132064 1.70229 0.0146264)
(-0.165205 3.11493 0.00370738)
(0.0459277 -1.1914 -0.0208616)
(0.0873954 -1.23708 -0.0181995)
(0.107126 -1.05906 -0.0126514)
(0.124966 -0.791189 -0.00583041)
(0.11547 -0.407857 5.70764e-05)
(0.0641037 0.0992223 0.00305597)
(-0.0169932 0.781581 0.0077128)
(-0.182831 1.78936 0.015735)
(-0.151784 2.86326 0.00655047)
(0.0260959 -1.23995 -0.0116629)
(0.0486509 -1.24101 -0.00941427)
(0.0534644 -1.06479 -0.00482698)
(0.0542071 -0.786586 0.00182219)
(0.0342519 -0.380013 0.00925842)
(-0.0176069 0.159841 0.012854)
(-0.090354 0.866194 0.0135868)
(-0.211152 1.83843 0.0170937)
(-0.143053 2.63184 0.0083897)
(0.0117989 -1.25951 -0.00630512)
(0.0201134 -1.23433 -0.00458259)
(0.0170991 -1.05913 -0.000996197)
(0.00786923 -0.771256 0.0044125)
(-0.0181271 -0.349136 0.0116644)
(-0.0675436 0.210688 0.0174059)
(-0.135347 0.931308 0.0180778)
(-0.222147 1.86328 0.0184116)
(-0.133842 2.44915 0.009143)
(0.00583362 -1.26652 -0.00370342)
(0.00712671 -1.22883 -0.00236839)
(0.000788461 -1.05037 0.000541995)
(-0.0135306 -0.752837 0.00483445)
(-0.0428063 -0.315879 0.010557)
(-0.0887813 0.258862 0.016288)
(-0.145904 0.976387 0.0181961)
(-0.198177 1.82216 0.0171192)
(-0.111294 2.18694 0.0079932)
(0.399438 -3.93544 0.41278)
(0.872564 -2.9158 0.377074)
(1.37464 -1.66991 0.342572)
(1.74082 -0.960407 0.270244)
(1.9838 -0.574009 0.17488)
(2.20773 -0.325794 0.0473329)
(2.44607 -0.036633 -0.156388)
(2.33046 0.913462 -0.368917)
(3.73408 2.94611 -0.410837)
(0.364246 0.784227 -0.215673)
(0.321088 0.0156436 -0.0947345)
(0.644463 -0.189273 -0.0286409)
(0.975325 -0.238748 -0.00588472)
(1.20742 -0.245416 -0.00340027)
(1.31591 -0.239392 -0.0213625)
(1.25879 -0.177691 -0.0663826)
(0.788249 0.354087 -0.118732)
(0.794989 2.98015 -0.245438)
(0.0623751 -1.17913 -0.157423)
(0.273506 -1.30864 -0.168705)
(0.449314 -1.04909 -0.159281)
(0.636656 -0.778505 -0.130855)
(0.770717 -0.528591 -0.0938142)
(0.787728 -0.253811 -0.057)
(0.649491 0.151081 -0.0202585)
(0.203949 0.942042 0.0156286)
(0.058259 3.12353 -0.0311273)
(0.0909912 -0.93063 -0.107914)
(0.146455 -1.16126 -0.0992636)
(0.229107 -1.02655 -0.0942825)
(0.345553 -0.790466 -0.0913686)
(0.429783 -0.495022 -0.0749476)
(0.426282 -0.119105 -0.0472032)
(0.327351 0.426155 -0.0089877)
(0.00895032 1.36345 0.0343079)
(-0.0947784 3.17469 0.0422547)
(0.0676904 -1.10279 -0.0613701)
(0.137345 -1.2418 -0.057603)
(0.182922 -1.08177 -0.0462197)
(0.227176 -0.834132 -0.0374433)
(0.24822 -0.486824 -0.0306732)
(0.218758 -0.0366242 -0.0219948)
(0.142529 0.580016 -0.00197935)
(-0.0761624 1.54209 0.0295353)
(-0.107689 3.00299 0.0477216)
(0.0486839 -1.15627 -0.0384056)
(0.0910514 -1.24546 -0.0336043)
(0.112414 -1.09222 -0.0228912)
(0.132872 -0.840567 -0.00984875)
(0.130621 -0.467205 0.00134195)
(0.0888667 0.0293774 0.00428253)
(0.0212613 0.685713 0.00950862)
(-0.138124 1.6388 0.0291093)
(-0.106648 2.76637 0.0460178)
(0.0276682 -1.20965 -0.0213626)
(0.0512655 -1.25235 -0.0175191)
(0.0578225 -1.10055 -0.00911964)
(0.0613505 -0.839399 0.00262497)
(0.0472561 -0.444398 0.0161216)
(0.00381817 0.0849657 0.021567)
(-0.0577479 0.76923 0.0206692)
(-0.175265 1.70054 0.0311425)
(-0.107543 2.54851 0.0449672)
(0.0128145 -1.2324 -0.0115045)
(0.0217109 -1.24751 -0.00858977)
(0.0201996 -1.09615 -0.00231872)
(0.0135363 -0.825186 0.00682547)
(-0.00758588 -0.414484 0.0195222)
(-0.0503979 0.13505 0.0296499)
(-0.109854 0.836732 0.0296499)
(-0.194304 1.73786 0.0343367)
(-0.10633 2.37459 0.0434147)
(0.00646742 -1.24107 -0.00696207)
(0.00814885 -1.24309 -0.00457711)
(0.00296852 -1.08823 0.000455882)
(-0.00918051 -0.807392 0.00761522)
(-0.0345531 -0.38083 0.0173867)
(-0.0766378 0.186365 0.0278358)
(-0.128747 0.889009 0.0311903)
(-0.178465 1.71279 0.0339597)
(-0.0918874 2.1238 0.0372027)
(0.284895 -3.58656 0.519009)
(0.823484 -2.83184 0.522326)
(1.33346 -1.63616 0.468644)
(1.72315 -0.948585 0.3674)
(1.98812 -0.557173 0.234117)
(2.20504 -0.300094 0.0556438)
(2.44758 -0.0335769 -0.248053)
(2.23383 0.712793 -0.562529)
(3.79695 2.52243 -0.490797)
(0.172532 1.1017 -0.418956)
(0.135974 0.102684 -0.216326)
(0.511812 -0.0846095 -0.104828)
(0.890727 -0.155352 -0.0545075)
(1.16496 -0.182606 -0.0324866)
(1.30641 -0.199989 -0.041165)
(1.28976 -0.178008 -0.0901751)
(0.833857 0.222102 -0.12399)
(0.837508 2.67082 -0.169631)
(0.0929519 -0.917473 -0.125206)
(0.230604 -1.23144 -0.189601)
(0.376358 -1.05658 -0.219658)
(0.572068 -0.796953 -0.208438)
(0.73497 -0.549119 -0.158071)
(0.782541 -0.289025 -0.0970026)
(0.68175 0.0739907 -0.0310085)
(0.277767 0.759644 0.0605099)
(0.108243 2.78485 0.119814)
(0.106978 -0.788488 -0.127118)
(0.163634 -1.15178 -0.121856)
(0.234828 -1.09261 -0.111159)
(0.335312 -0.871773 -0.113049)
(0.421938 -0.568873 -0.100965)
(0.433063 -0.194682 -0.0706345)
(0.354976 0.316743 -0.02014)
(0.0639632 1.1524 0.0607805)
(-0.0521848 2.82331 0.173323)
(0.0737806 -0.98666 -0.0717462)
(0.144264 -1.24562 -0.0796267)
(0.189642 -1.14949 -0.0658861)
(0.232862 -0.926422 -0.0516428)
(0.257512 -0.58445 -0.0396738)
(0.236528 -0.135119 -0.0338039)
(0.170906 0.463552 -0.0154138)
(-0.0408362 1.35828 0.0324574)
(-0.0805507 2.69364 0.138823)
(0.0526524 -1.07116 -0.0495061)
(0.0956252 -1.2634 -0.0498293)
(0.117599 -1.16246 -0.037894)
(0.137745 -0.933591 -0.0202251)
(0.141165 -0.566576 -0.00155942)
(0.108432 -0.0744019 0.000371243)
(0.0483003 0.573998 -0.00197644)
(-0.112922 1.48644 0.0176618)
(-0.0897008 2.51023 0.105991)
(0.0298465 -1.13403 -0.0281566)
(0.0533182 -1.27047 -0.0274191)
(0.0607191 -1.16786 -0.0180208)
(0.0658793 -0.929827 -0.00299337)
(0.0566499 -0.543765 0.0159304)
(0.0212411 -0.0167651 0.0209855)
(-0.0356683 0.667014 0.0105285)
(-0.156789 1.57093 0.0125155)
(-0.0960969 2.32932 0.0831224)
(0.0140849 -1.16162 -0.0154061)
(0.0224284 -1.26556 -0.0136061)
(0.0217656 -1.16125 -0.00667836)
(0.0169477 -0.913951 0.00423655)
(0.000597793 -0.509349 0.0193947)
(-0.0370141 0.0421076 0.0315388)
(-0.0949525 0.746878 0.021851)
(-0.182619 1.6252 0.0139944)
(-0.0990536 2.17717 0.0681009)
(0.00700367 -1.17269 -0.00949408)
(0.00826661 -1.26172 -0.00730554)
(0.00364647 -1.15312 -0.00173601)
(-0.00650252 -0.896477 0.00617304)
(-0.0281524 -0.472313 0.0162766)
(-0.0701946 0.108241 0.0293214)
(-0.123419 0.818008 0.0267609)
(-0.174164 1.61646 0.0196339)
(-0.0882433 1.94373 0.0513707)
(0.0537769 -2.02987 0.441031)
(1.03452 -2.14538 0.596083)
(1.41513 -1.30764 0.554239)
(1.91618 -0.771714 0.450964)
(2.19652 -0.432415 0.313321)
(2.36372 -0.244038 0.151006)
(2.49367 -0.131785 -0.129178)
(1.69878 -0.0173582 -0.445353)
(3.22745 1.24378 -0.336478)
(-0.0737999 1.03996 -0.379047)
(-0.297139 0.309175 -0.107769)
(0.251593 0.493714 -0.167397)
(0.598104 0.314725 -0.126606)
(0.950703 0.185673 -0.0940665)
(1.15544 0.0327414 -0.0702037)
(1.17579 -0.140724 -0.0721518)
(0.666931 -0.188284 -0.0541379)
(0.351482 1.75496 -0.0451915)
(0.110993 -0.221256 -0.0416934)
(0.0975954 -0.699264 -0.0220685)
(0.254235 -0.808302 -0.107347)
(0.399891 -0.704686 -0.138014)
(0.564566 -0.543506 -0.138812)
(0.637021 -0.330737 -0.106339)
(0.584219 -0.0382593 -0.0399177)
(0.210023 0.50184 0.0822012)
(-0.22989 2.07161 0.19161)
(0.0952145 -0.348995 -0.094054)
(0.147999 -0.868146 -0.0835438)
(0.226632 -0.973636 -0.0798504)
(0.305207 -0.884663 -0.0732167)
(0.374229 -0.659886 -0.0772832)
(0.373933 -0.312968 -0.077629)
(0.301354 0.184314 -0.0390458)
(-0.0075213 1.04009 0.0856348)
(-0.307721 2.16797 0.23669)
(0.0669195 -0.578708 -0.0472253)
(0.126618 -1.02535 -0.0489866)
(0.176654 -1.11444 -0.0450207)
(0.222318 -1.01124 -0.0292052)
(0.250611 -0.737845 -0.0217052)
(0.228453 -0.309405 -0.0318463)
(0.141746 0.325879 -0.0278243)
(-0.127507 1.35331 0.0703524)
(-0.286235 2.11846 0.20915)
(0.0504905 -0.718992 -0.03502)
(0.0887579 -1.12034 -0.0355629)
(0.113784 -1.19243 -0.0267681)
(0.134535 -1.06414 -0.0122201)
(0.139318 -0.738596 0.00352877)
(0.109395 -0.248546 0.000238711)
(0.0142252 0.477626 -0.00924821)
(-0.203339 1.53899 0.0627823)
(-0.252164 2.01001 0.176402)
(0.0296459 -0.817808 -0.0207784)
(0.0487279 -1.17825 -0.0198309)
(0.0581754 -1.23618 -0.0126131)
(0.0633861 -1.08415 -0.00193142)
(0.0559649 -0.708093 0.0135694)
(0.0183895 -0.16295 0.0169722)
(-0.0816589 0.632235 0.0059086)
(-0.245546 1.64664 0.058714)
(-0.21974 1.87757 0.147408)
(0.0133905 -0.86755 -0.0118302)
(0.0187242 -1.20128 -0.0106796)
(0.0181443 -1.2499 -0.00548763)
(0.0140772 -1.07573 0.0030349)
(0.00118247 -0.657609 0.0151699)
(-0.046783 -0.0573585 0.026027)
(-0.150375 0.765218 0.0200223)
(-0.267101 1.70681 0.0591885)
(-0.190645 1.75336 0.126536)
(0.00605239 -0.888212 -0.00791512)
(0.00482083 -1.20888 -0.00647866)
(-0.000240913 -1.25005 -0.002085)
(-0.0088355 -1.06084 0.00419889)
(-0.0262482 -0.608744 0.0140892)
(-0.0950551 0.0906261 0.0286016)
(-0.186345 0.918215 0.0316383)
(-0.247118 1.71158 0.060501)
(-0.145799 1.56142 0.100689)
)
;

boundaryField
{
    inlet
    {
        type            fixedValue;
        value           uniform (10 0 0);
    }
    outlet
    {
        type            zeroGradient;
    }
    lowerWall
    {
        type            noSlip;
    }
    upperWall
    {
        type            noSlip;
    }
}


// ************************************************************************* //
