/*--------------------------------*- C++ -*----------------------------------*\
| =========                 |                                                 |
| \\      /  F ield         | OpenFOAM: The Open Source CFD Toolbox           |
|  \\    /   O peration     | Version:  2306                                  |
|   \\  /    A nd           | Website:  www.openfoam.com                      |
|    \\/     M anipulation  |                                                 |
\*---------------------------------------------------------------------------*/
FoamFile
{
    version     2.0;
    format      ascii;
    arch        "LSB;label=32;scalar=64";
    class       volScalarField;
    location    "0.7";
    object      p;
}
// * * * * * * * * * * * * * * * * * * * * * * * * * * * * * * * * * * * * * //

dimensions      [0 2 -2 0 0 0 0];

internalField   nonuniform List<scalar> 
288632
(
35.8288
35.8215
35.8307
35.8505
35.879
35.9152
35.9578
36.0039
36.0613
35.8879
36.5018
35.9194
36.154
0.406367
0.604844
-0.0391827
0.191328
0.160174
0.140733
0.121468
0.100925
0.0793447
0.056991
0.0337285
0.0109984
35.8232
35.8198
35.8297
35.8496
35.8782
35.9143
35.957
36.0032
36.0605
35.8885
36.5003
35.9179
36.1543
0.40639
0.606422
-0.0398907
0.191116
0.159775
0.140341
0.121128
0.100645
0.079126
0.0568348
0.0336338
0.0109659
35.8193
35.8174
35.8277
35.8478
35.8764
35.9125
35.9553
36.0014
36.0587
35.8905
36.4983
35.9169
36.154
0.406071
0.604278
-0.0412268
0.189981
0.158845
0.139541
0.120447
0.100085
0.0786904
0.0565239
0.0334471
0.0109033
35.8153
35.8141
35.8249
35.8451
35.8737
35.9098
35.9525
35.9987
36.0561
35.8928
36.4954
35.9161
36.1535
0.40552
0.603929
-0.0427244
0.188605
0.157515
0.138357
0.119435
0.0992539
0.0780434
0.0560623
0.0331706
0.0108112
35.811
35.8103
35.8213
35.8416
35.8701
35.9062
35.9489
35.9951
36.0525
35.8956
36.4918
35.915
36.1527
0.403895
0.601561
-0.0448588
0.186657
0.155749
0.136799
0.118105
0.0981614
0.0771935
0.0554563
0.0328077
0.0106905
35.8063
35.8059
35.817
35.8373
35.8657
35.9018
35.9444
35.9907
36.0481
35.899
36.4874
35.9136
36.1516
0.401333
0.599055
-0.0474142
0.184242
0.153577
0.134886
0.116473
0.0968221
0.0761521
0.0547138
0.0323634
0.0105428
35.8013
35.8009
35.8121
35.8323
35.8607
35.8966
35.9392
35.9856
36.0431
35.9031
36.4823
35.9122
36.1503
0.398216
0.595969
-0.0503859
0.181389
0.151024
0.132644
0.114561
0.0952538
0.074933
0.0538448
0.0318436
0.0103702
35.7959
35.7956
35.8067
35.8267
35.8549
35.8908
35.9334
35.9798
36.0376
35.908
36.4763
35.9109
36.149
0.394587
0.592396
-0.0537394
0.178138
0.148125
0.130101
0.112394
0.0934778
0.0735529
0.0528614
0.0312554
0.0101748
35.7903
35.7899
35.8009
35.8207
35.8487
35.8844
35.927
35.9737
36.0318
35.9137
36.4698
35.9099
36.1478
0.390511
0.588394
-0.0574381
0.174536
0.14492
0.127293
0.110004
0.0915187
0.0720311
0.0517772
0.0306069
0.00995953
35.7844
35.7839
35.7947
35.8143
35.842
35.8776
35.9203
35.9673
36.0258
35.9202
36.4628
35.9095
36.1471
0.386052
0.58403
-0.0614345
0.170636
0.141454
0.124259
0.107422
0.0894044
0.0703893
0.0506078
0.0299076
0.0097274
35.7784
35.7778
35.7883
35.8076
35.835
35.8705
35.9133
35.9608
36.0199
35.9277
36.4555
35.9098
36.1473
0.381276
0.579371
-0.0656792
0.166496
0.137777
0.121043
0.104688
0.0871656
0.0686514
0.0493701
0.0291676
0.0094818
35.7723
35.7715
35.7817
35.8007
35.8279
35.8632
35.9062
35.9544
36.0143
35.9362
36.4483
35.9113
36.1486
0.37626
0.574493
-0.0701113
0.162179
0.133945
0.117693
0.10184
0.0848355
0.0668433
0.0480829
0.028398
0.00922639
35.7662
35.7653
35.7751
35.7937
35.8206
35.8559
35.8992
35.9484
36.0094
35.9456
36.4415
35.9142
36.1515
0.371074
0.569474
-0.0746642
0.157751
0.130014
0.114259
0.0989235
0.0824497
0.0649925
0.0467656
0.0276107
0.00896505
35.7603
35.7591
35.7686
35.7868
35.8134
35.8486
35.8924
35.9428
36.0053
35.9561
36.4354
35.9187
36.1564
0.365808
0.564391
-0.0792714
0.153282
0.126046
0.110794
0.0959826
0.0800451
0.0631279
0.0454389
0.0268177
0.00870188
35.7546
35.7532
35.7623
35.7801
35.8063
35.8415
35.8859
35.9377
36.0023
35.9675
36.4304
35.9253
36.1636
0.360519
0.55932
-0.0838564
0.148841
0.122105
0.107355
0.0930643
0.0776602
0.0612791
0.0441238
0.0260319
0.00844107
35.7492
35.7475
35.7563
35.7736
35.7995
35.8348
35.8798
35.9334
36.0003
35.9799
36.4267
35.9341
36.1733
0.355325
0.554344
-0.0883429
0.1445
0.118254
0.103997
0.0902163
0.0753336
0.0594761
0.0428416
0.0252658
0.00818686
35.7442
35.7423
35.7507
35.7675
35.7931
35.8284
35.8743
35.9297
35.9996
35.993
36.4246
35.945
36.1855
0.350278
0.549542
-0.0926526
0.14033
0.114558
0.100775
0.0874857
0.0731039
0.0577488
0.0416135
0.0245321
0.00794345
35.7397
35.7376
35.7455
35.7619
35.7872
35.8226
35.8693
35.9268
35.9998
36.0066
36.4241
35.9579
36.2002
0.345499
0.544986
-0.0967078
0.1364
0.111078
0.0977444
0.0849189
0.0710089
0.0561263
0.0404602
0.0238433
0.00771494
35.7358
35.7334
35.7409
35.7568
35.7819
35.8174
35.865
35.9246
36.0011
36.0203
36.4251
35.9722
36.2168
0.341039
0.540748
-0.100432
0.132777
0.107874
0.0949578
0.0825602
0.0690846
0.0546364
0.0394014
0.023211
0.00750527
35.7327
35.7299
35.7369
35.7524
35.7772
35.8129
35.8613
35.9231
36.0029
36.0337
36.4272
35.9875
36.2347
0.336969
0.536889
-0.103754
0.129522
0.105004
0.0924643
0.080451
0.0673647
0.0533052
0.0384555
0.0226463
0.00731806
35.7304
35.7271
35.7336
35.7487
35.7732
35.8091
35.8583
35.9221
36.0052
36.0464
36.43
36.003
36.253
0.33335
0.533344
-0.10661
0.126693
0.102518
0.0903089
0.0786291
0.0658796
0.0521562
0.0376393
0.0221591
0.00715663
35.729
35.7251
35.731
35.7457
35.77
35.806
35.856
35.9215
36.0076
36.0576
36.4332
36.018
36.2706
0.330608
0.531199
-0.108871
0.124351
0.100464
0.088531
0.0771276
0.0646563
0.05121
0.0369674
0.0217581
0.00702388
35.7287
35.7239
35.7292
35.7435
35.7677
35.8037
35.8543
35.9213
36.0098
36.0669
36.4365
36.0311
36.2863
0.328731
0.527259
-0.110816
0.122388
0.0988663
0.0871646
0.0759742
0.0637169
0.0504837
0.0364518
0.0214507
0.00692226
35.7295
35.7234
35.728
35.7421
35.7661
35.8022
35.8533
35.9212
36.0115
36.0737
36.4387
36.041
36.2991
0.327007
0.527496
-0.111787
0.121364
0.0978372
0.0862405
0.0751907
0.0630789
0.0499906
0.0361019
0.0212425
0.00685375
35.7339
35.7237
35.7276
35.7414
35.7654
35.8016
35.8529
35.9214
36.0126
36.0777
36.4409
36.0457
36.3078
0.324817
0.524134
-0.11224
0.120378
0.0972124
0.0857551
0.0747892
0.0627537
0.0497397
0.035924
0.0211375
0.00681998
35.8225
35.8191
35.8288
35.8487
35.8772
35.9133
35.9559
36.0019
36.0591
35.8867
36.4986
35.9166
36.1531
0.406371
0.605557
-0.0385541
0.190385
0.159633
0.140394
0.121266
0.100837
0.0793413
0.0570377
0.0337873
0.01103
35.8169
35.8174
35.8278
35.8479
35.8764
35.9125
35.9551
36.0011
36.0582
35.8881
36.4945
35.9152
36.1531
0.406446
0.607053
-0.0392754
0.190154
0.15922
0.139992
0.12092
0.100553
0.0791194
0.0568793
0.0336913
0.0109971
35.8131
35.8149
35.8259
35.846
35.8746
35.9106
35.9532
35.9993
36.0564
35.8901
36.492
35.9141
36.1529
0.40613
0.604891
-0.0406264
0.189008
0.158281
0.13918
0.120229
0.0999852
0.0786776
0.0565642
0.0335022
0.0109338
35.809
35.8117
35.823
35.8433
35.8718
35.9079
35.9504
35.9965
36.0536
35.8923
36.4888
35.913
36.1525
0.405579
0.604474
-0.042162
0.187596
0.156926
0.137977
0.119201
0.0991416
0.0780216
0.0560965
0.0332221
0.0108405
35.8047
35.8078
35.8194
35.8397
35.8682
35.9042
35.9467
35.9928
36.0499
35.895
36.4849
35.9118
36.1516
0.403898
0.602089
-0.0443294
0.185615
0.155128
0.136393
0.11785
0.098033
0.0771598
0.0554822
0.0328545
0.0107183
35.8
35.8033
35.8151
35.8354
35.8638
35.8997
35.9422
35.9882
36.0454
35.8983
36.4802
35.9102
36.1504
0.401309
0.599524
-0.046928
0.183155
0.152918
0.134449
0.116192
0.0966739
0.0761035
0.0547295
0.0324043
0.0105687
35.795
35.7984
35.8102
35.8304
35.8586
35.8944
35.9368
35.9829
36.0402
35.9022
36.4746
35.9084
36.1489
0.398144
0.596373
-0.0499523
0.18025
0.150321
0.132169
0.114251
0.0950821
0.0748669
0.0538485
0.0318775
0.0103938
35.7896
35.793
35.8047
35.8248
35.8528
35.8884
35.9308
35.9769
36.0344
35.9069
36.4681
35.9068
36.1474
0.39446
0.592725
-0.0533664
0.176939
0.147372
0.129584
0.11205
0.0932792
0.0734667
0.0528513
0.0312812
0.0101959
35.7839
35.7873
35.7988
35.8186
35.8465
35.8819
35.9243
35.9705
36.0282
35.9123
36.4609
35.9053
36.146
0.390321
0.58864
-0.0571335
0.17327
0.14411
0.126729
0.109621
0.09129
0.0719225
0.0517516
0.0306238
0.0099777
35.778
35.7813
35.7926
35.8121
35.8397
35.875
35.9173
35.9638
36.0218
35.9184
36.4532
35.9042
36.1449
0.385791
0.584186
-0.0612055
0.169298
0.140581
0.123643
0.106997
0.0891427
0.0702561
0.0505652
0.0299146
0.00974242
35.772
35.7751
35.7861
35.8053
35.8326
35.8677
35.9101
35.957
36.0154
35.9255
36.445
35.9039
36.1446
0.380942
0.579429
-0.0655324
0.16508
0.136838
0.120372
0.104218
0.0868685
0.0684918
0.0493094
0.0291641
0.00949343
35.7659
35.7688
35.7795
35.7983
35.8252
35.8602
35.9027
35.9503
36.0094
35.9334
36.4367
35.9045
36.1453
0.375844
0.574447
-0.0700517
0.16068
0.132934
0.116962
0.101322
0.084501
0.0666557
0.0480029
0.0283833
0.00923441
35.7598
35.7625
35.7729
35.7913
35.8178
35.8526
35.8954
35.9439
36.0039
35.9422
36.4286
35.9064
36.1476
0.370576
0.569321
-0.0746956
0.156167
0.12893
0.113467
0.0983559
0.0820762
0.0647759
0.0466656
0.0275843
0.00896932
35.7538
35.7563
35.7663
35.7843
35.8105
35.8451
35.8882
35.9378
35.9993
35.9519
36.4212
35.91
36.1518
0.365215
0.564126
-0.0793952
0.15161
0.124888
0.10994
0.0953641
0.0796318
0.0628815
0.0453185
0.0267795
0.00870229
35.748
35.7503
35.7599
35.7774
35.8032
35.8378
35.8814
35.9323
35.9956
35.9626
36.4147
35.9154
36.1583
0.359848
0.558946
-0.0840746
0.147081
0.120871
0.106438
0.0923947
0.0772067
0.0610028
0.0439828
0.0259816
0.0084376
35.7426
35.7446
35.7538
35.7709
35.7963
35.8308
35.875
35.9274
35.993
35.974
36.4096
35.923
36.1671
0.354555
0.553862
-0.0886551
0.142654
0.116946
0.103017
0.089496
0.0748404
0.0591702
0.0426802
0.0252037
0.00817955
35.7376
35.7393
35.7481
35.7647
35.7897
35.8242
35.869
35.9233
35.9916
35.9862
36.406
35.9327
36.1786
0.349446
0.548955
-0.093057
0.1384
0.113176
0.0997348
0.0867163
0.0725722
0.0574141
0.0414322
0.0244585
0.00793241
35.7331
35.7346
35.7429
35.759
35.7837
35.8182
35.8637
35.9199
35.9912
35.9989
36.404
35.9443
36.1925
0.344579
0.544302
-0.0972004
0.134391
0.109628
0.0966469
0.0841027
0.0704406
0.0557642
0.04026
0.0237586
0.00770036
35.7292
35.7304
35.7382
35.7538
35.7782
35.8127
35.859
35.9172
35.9918
36.0117
36.4035
35.9575
36.2084
0.340049
0.539974
-0.101007
0.130694
0.10636
0.0938068
0.0817006
0.0684822
0.0542489
0.0391837
0.0231161
0.0074874
35.726
35.7268
35.7342
35.7493
35.7734
35.808
35.855
35.9152
35.9931
36.0243
36.4043
35.9719
36.2257
0.335903
0.536037
-0.104403
0.127372
0.103433
0.0912651
0.0795522
0.0667315
0.0528947
0.0382221
0.0225422
0.00729722
35.7237
35.724
35.7308
35.7455
35.7693
35.804
35.8517
35.9138
35.9949
36.0362
36.406
35.9866
36.2435
0.332237
0.532424
-0.107322
0.124485
0.100897
0.0890676
0.0776961
0.0652196
0.0517257
0.0373921
0.022047
0.00713319
35.7222
35.722
35.7282
35.7425
35.766
35.8007
35.8492
35.9128
35.9968
36.0468
36.4083
36.0009
36.2607
0.329436
0.530217
-0.109644
0.122092
0.0988003
0.087255
0.0761662
0.063974
0.0507629
0.0367088
0.0216394
0.00699826
35.7219
35.7208
35.7263
35.7402
35.7635
35.7983
35.8473
35.9123
35.9986
36.0556
36.4108
36.0133
36.2761
0.327528
0.52626
-0.111621
0.120102
0.0971733
0.0858619
0.0749909
0.0630176
0.0500238
0.0361844
0.0213269
0.00689496
35.7227
35.7203
35.7252
35.7387
35.7619
35.7968
35.8461
35.9121
36
36.0621
36.4124
36.0227
36.2887
0.325776
0.526449
-0.112623
0.119046
0.0961164
0.0849177
0.0741925
0.0623679
0.0495221
0.0358285
0.0211152
0.00682531
35.7271
35.7205
35.7247
35.7381
35.7612
35.7961
35.8456
35.9121
36.001
36.066
36.4138
36.0283
36.2972
0.323588
0.523156
-0.113086
0.118055
0.0954871
0.0844281
0.0737843
0.062037
0.0492669
0.0356476
0.0210084
0.00679101
35.817
35.815
35.8252
35.8451
35.8735
35.9094
35.9518
35.9976
36.0545
35.8852
36.4933
35.9125
36.1499
0.40627
0.604045
-0.0369628
0.188614
0.158769
0.139934
0.121055
0.100825
0.0794643
0.0572261
0.0339658
0.0111164
35.8115
35.8133
35.8242
35.8443
35.8726
35.9085
35.9509
35.9967
36.0536
35.8865
36.4887
35.911
36.15
0.406372
0.605547
-0.0376929
0.18836
0.158339
0.139518
0.120699
0.100533
0.0792364
0.0570636
0.0338675
0.0110827
35.8076
35.8108
35.8222
35.8424
35.8708
35.9066
35.949
35.9948
36.0517
35.8883
36.4857
35.9096
36.1499
0.406027
0.603355
-0.0390734
0.187185
0.157371
0.138683
0.119987
0.0999488
0.0787826
0.0567403
0.0336737
0.0110179
35.8035
35.8075
35.8193
35.8396
35.8679
35.9038
35.9461
35.9918
36.0487
35.8905
36.4819
35.9083
36.1494
0.405449
0.602854
-0.0406707
0.185711
0.155969
0.137442
0.118929
0.0990812
0.0781086
0.0562602
0.0333864
0.0109223
35.7992
35.8036
35.8156
35.8359
35.8642
35.9
35.9422
35.9879
36.0447
35.893
36.4774
35.9066
36.1482
0.403681
0.60042
-0.0429062
0.18366
0.154111
0.135807
0.117537
0.0979407
0.077223
0.0556296
0.0330094
0.0107971
35.7945
35.7991
35.8113
35.8315
35.8597
35.8953
35.9374
35.983
36.0398
35.896
36.4718
35.9045
36.1465
0.400998
0.597734
-0.0455939
0.181112
0.151826
0.133801
0.115829
0.096542
0.0761373
0.0548567
0.0325475
0.0106438
35.7894
35.7941
35.8063
35.8264
35.8544
35.8898
35.9318
35.9773
36.034
35.8995
36.4652
35.9021
36.1444
0.397714
0.594454
-0.0487224
0.178102
0.14914
0.131448
0.113828
0.0949035
0.0748658
0.0539517
0.0320067
0.0104644
35.7839
35.7887
35.8007
35.8207
35.8484
35.8836
35.9254
35.9709
36.0276
35.9037
36.4574
35.8996
36.1421
0.393902
0.590658
-0.0522584
0.174671
0.146088
0.128778
0.111558
0.0930468
0.0734256
0.0529269
0.0313945
0.0102613
35.7782
35.7829
35.7947
35.8144
35.8419
35.8768
35.9185
35.964
36.0207
35.9085
36.4486
35.8971
36.1397
0.389616
0.586409
-0.0561623
0.170868
0.142712
0.125828
0.109052
0.0909976
0.0718366
0.0517964
0.0307192
0.0100375
35.7722
35.7768
35.7884
35.8077
35.8348
35.8695
35.9111
35.9567
36.0134
35.9139
36.4388
35.8948
36.1374
0.384922
0.581775
-0.0603863
0.166749
0.139059
0.122639
0.106345
0.0887845
0.070121
0.0505762
0.0299905
0.00979589
35.7661
35.7705
35.7818
35.8008
35.8275
35.8618
35.9033
35.9492
36.0061
35.92
36.4282
35.8929
36.1355
0.379895
0.576827
-0.0648757
0.162374
0.135181
0.119256
0.103475
0.0864394
0.0683039
0.049284
0.0292188
0.00954012
35.7599
35.7641
35.7751
35.7936
35.8199
35.854
35.8954
35.9417
35.999
35.9267
36.4171
35.8918
36.1344
0.374605
0.571644
-0.0695683
0.157809
0.131135
0.115728
0.100484
0.0839969
0.0664119
0.0479391
0.0284158
0.00927391
35.7538
35.7577
35.7683
35.7863
35.8122
35.8459
35.8875
35.9344
35.9924
35.9342
36.4059
35.8917
36.1346
0.369137
0.566307
-0.0743957
0.153124
0.126984
0.11211
0.0974176
0.0814941
0.0644739
0.0465619
0.0275935
0.00900132
35.7477
35.7514
35.7616
35.7791
35.8045
35.838
35.8796
35.9274
35.9865
35.9425
36.395
35.8931
36.1363
0.363576
0.560897
-0.079284
0.148391
0.122791
0.108458
0.0943238
0.0789698
0.0625199
0.0451737
0.0267649
0.00872661
35.7419
35.7454
35.7551
35.7721
35.7969
35.8302
35.872
35.9209
35.9815
35.9514
36.3849
35.8961
36.1402
0.358009
0.555501
-0.0841546
0.143686
0.118622
0.104829
0.0912516
0.0764641
0.0605811
0.0437966
0.0259429
0.00845416
35.7364
35.7396
35.7489
35.7653
35.7896
35.8226
35.8649
35.915
35.9775
35.9611
36.376
35.9012
36.1463
0.352522
0.550204
-0.0889258
0.139084
0.114547
0.101283
0.0882511
0.0740181
0.058689
0.0424531
0.0251411
0.00818842
35.7313
35.7342
35.743
35.7589
35.7827
35.8156
35.8582
35.9098
35.9747
35.9714
36.3686
35.9084
36.1549
0.347216
0.54509
-0.0935139
0.134661
0.110632
0.0978785
0.0853724
0.0716724
0.0568751
0.0411654
0.0243728
0.00793381
35.7267
35.7294
35.7376
35.753
35.7763
35.809
35.8521
35.9053
35.9729
35.9821
36.3629
35.9175
36.1661
0.342162
0.54024
-0.0978358
0.130491
0.106944
0.0946745
0.0826645
0.0694669
0.0551701
0.0399553
0.0236509
0.00769464
35.7228
35.7251
35.7329
35.7476
35.7706
35.8031
35.8467
35.9016
35.9722
35.993
36.3589
35.9285
36.1794
0.337447
0.535728
-0.101809
0.126645
0.103548
0.0917265
0.0801747
0.0674399
0.0536037
0.0388438
0.0229879
0.00747505
35.7196
35.7215
35.7287
35.7429
35.7655
35.7979
35.842
35.8986
35.9722
36.0038
36.3565
35.9408
36.1942
0.33315
0.531624
-0.105356
0.12319
0.100504
0.0890873
0.0779471
0.0656271
0.0522033
0.0378504
0.0223955
0.00727888
35.7172
35.7186
35.7253
35.739
35.7611
35.7935
35.8381
35.8963
35.9728
36.0141
36.3555
35.9539
36.2098
0.329334
0.527877
-0.108406
0.120186
0.0978667
0.0868047
0.076022
0.0640613
0.050994
0.0369927
0.0218842
0.00710961
35.7157
35.7165
35.7226
35.7358
35.7576
35.7899
35.835
35.8946
35.9737
36.0233
36.3555
35.9666
36.2252
0.32641
0.525528
-0.110848
0.117693
0.0956857
0.0849218
0.0744348
0.0627708
0.0499978
0.0362864
0.0214632
0.00697032
35.7154
35.7153
35.7207
35.7335
35.755
35.7872
35.8327
35.8935
35.9747
36.031
36.356
35.9777
36.2392
0.324422
0.521472
-0.112904
0.115633
0.0939946
0.0834734
0.0732151
0.0617797
0.0492329
0.0357442
0.0211403
0.00686366
35.7162
35.7147
35.7194
35.7319
35.7533
35.7855
35.8313
35.8929
35.9755
36.0368
36.3561
35.9861
36.2507
0.322602
0.521605
-0.113969
0.114523
0.092891
0.0824905
0.0723864
0.0611065
0.0487136
0.0353762
0.0209215
0.00679173
35.7205
35.715
35.719
35.7312
35.7525
35.7847
35.8307
35.8927
35.9762
36.0405
36.3563
35.9912
36.2585
0.320359
0.518228
-0.11447
0.113508
0.0922401
0.0819841
0.071963
0.0607635
0.0484494
0.0351892
0.0208111
0.00675624
35.8106
35.8094
35.8199
35.8398
35.8679
35.9035
35.9456
35.991
36.0477
35.8821
36.4855
35.9068
36.1446
0.405246
0.602144
-0.0342564
0.186066
0.157585
0.139353
0.120835
0.10089
0.0797157
0.0575585
0.0342658
0.0112579
35.805
35.8076
35.8188
35.8388
35.867
35.9026
35.9447
35.9901
36.0467
35.8834
36.4806
35.905
36.1448
0.405317
0.603616
-0.035011
0.185778
0.157131
0.138916
0.120464
0.100585
0.0794787
0.0573898
0.034164
0.0112231
35.8012
35.8051
35.8168
35.8369
35.8651
35.9006
35.9426
35.988
36.0445
35.8851
36.4771
35.9034
36.1446
0.404952
0.601359
-0.0364445
0.184552
0.156117
0.138044
0.119721
0.0999768
0.079007
0.0570541
0.033963
0.0111561
35.7971
35.8018
35.8139
35.834
35.8621
35.8976
35.9395
35.9848
36.0412
35.887
36.4726
35.9016
36.1437
0.404323
0.600733
-0.0381297
0.182997
0.154647
0.136747
0.118617
0.0990731
0.078306
0.0565556
0.0336651
0.0110571
35.7927
35.7978
35.8101
35.8303
35.8583
35.8936
35.9353
35.9805
36.0367
35.8892
36.4671
35.8994
36.1421
0.402381
0.598208
-0.040471
0.180836
0.152697
0.135035
0.117163
0.0978847
0.0773847
0.0559005
0.0332739
0.0109273
35.7879
35.7932
35.8056
35.8257
35.8536
35.8887
35.9302
35.9752
36.0312
35.8918
36.4603
35.8966
36.1396
0.399553
0.595348
-0.0432911
0.178153
0.150298
0.132935
0.11538
0.0964266
0.0762548
0.0550972
0.0327944
0.0107684
35.7827
35.7882
35.8005
35.8205
35.848
35.8829
35.9241
35.9689
36.0247
35.8948
36.4521
35.8931
36.1365
0.396102
0.59187
-0.0465784
0.174984
0.147478
0.130471
0.113288
0.0947176
0.0749308
0.0541562
0.0322328
0.0105823
35.7772
35.7826
35.7949
35.8145
35.8418
35.8763
35.9173
35.9619
36.0174
35.8982
36.4423
35.8892
36.1327
0.392079
0.587849
-0.0502987
0.171372
0.144272
0.127674
0.110915
0.0927801
0.0734304
0.05309
0.0315966
0.0103716
35.7714
35.7767
35.7887
35.8081
35.8349
35.8691
35.9098
35.9542
36.0093
35.902
36.4309
35.8851
36.1284
0.387559
0.583349
-0.0544107
0.167366
0.140723
0.124581
0.108294
0.0906404
0.0717739
0.0519131
0.0308945
0.0101391
35.7654
35.7705
35.7822
35.8012
35.8276
35.8613
35.9017
35.946
36.0008
35.9063
36.4179
35.8807
36.1238
0.382601
0.57844
-0.0588647
0.163025
0.136881
0.121235
0.105459
0.088328
0.0699844
0.0506421
0.0301363
0.00988809
35.7592
35.7641
35.7755
35.794
35.8198
35.8531
35.8932
35.9374
35.992
35.9109
36.4035
35.8763
36.1192
0.377298
0.573198
-0.0636037
0.158412
0.1328
0.117683
0.102452
0.0858759
0.0680875
0.0492952
0.029333
0.0096221
35.7529
35.7576
35.7686
35.7865
35.8118
35.8446
35.8844
35.9288
35.9833
35.916
36.3879
35.8722
36.1148
0.371707
0.567704
-0.0685625
0.153595
0.12854
0.113977
0.0993165
0.0833202
0.0661112
0.0478923
0.0284963
0.00934506
35.7466
35.7511
35.7616
35.779
35.8037
35.8359
35.8755
35.9201
35.9748
35.9214
36.3716
35.8687
36.1111
0.365929
0.562044
-0.0736688
0.148648
0.124165
0.110172
0.0960995
0.0806993
0.0640853
0.0464546
0.0276389
0.00906118
35.7404
35.7447
35.7547
35.7715
35.7955
35.8272
35.8666
35.9117
35.9669
35.9272
36.355
35.8661
36.1084
0.360049
0.556304
-0.0788449
0.143648
0.119742
0.106329
0.0928511
0.078054
0.0620412
0.0450045
0.0267743
0.00877488
35.7345
35.7385
35.748
35.7641
35.7875
35.8187
35.8579
35.9036
35.9598
35.9334
36.3388
35.8649
36.1071
0.354158
0.550577
-0.0840076
0.138674
0.115343
0.102508
0.0896229
0.0754264
0.0600115
0.043565
0.025916
0.00849073
35.7289
35.7326
35.7416
35.757
35.7797
35.8104
35.8496
35.8961
35.9537
35.9401
36.3236
35.8654
36.1078
0.348351
0.544952
-0.0890702
0.133807
0.111039
0.0987709
0.0864678
0.0728595
0.0580293
0.0421595
0.0250782
0.00821338
35.7237
35.7271
35.7355
35.7503
35.7723
35.8025
35.8417
35.8892
35.9486
35.9473
36.31
35.8679
36.1108
0.342736
0.539521
-0.0939438
0.129126
0.106902
0.0951812
0.0834387
0.0703961
0.0561278
0.0408115
0.0242749
0.00794747
35.7191
35.7221
35.73
35.7441
35.7654
35.7952
35.8345
35.8831
35.9446
35.9548
36.2983
35.8726
36.1162
0.337376
0.534368
-0.0985391
0.124711
0.103003
0.0918004
0.0805876
0.0680785
0.0543394
0.039544
0.0235196
0.00769753
35.715
35.7177
35.725
35.7385
35.7592
35.7886
35.828
35.8777
35.9416
35.9626
36.2886
35.8794
36.1239
0.332386
0.529575
-0.102768
0.120638
0.0994101
0.0886881
0.0779644
0.0659472
0.0526953
0.0383792
0.0228256
0.0074679
35.7117
35.714
35.7207
35.7335
35.7537
35.7827
35.8223
35.8732
35.9395
35.9703
36.281
35.8879
36.1335
0.327837
0.525216
-0.106547
0.116977
0.0961881
0.0859001
0.0756163
0.0640403
0.0512247
0.0373375
0.0222051
0.00726262
35.7093
35.711
35.7172
35.7294
35.749
35.7777
35.8174
35.8695
35.9382
35.9777
36.2754
35.8973
36.1443
0.323788
0.521258
-0.1098
0.113795
0.093396
0.0834879
0.073586
0.0623922
0.0499543
0.0364378
0.0216693
0.00708541
35.7078
35.7089
35.7143
35.726
35.7452
35.7736
35.8136
35.8666
35.9374
35.9844
36.2714
35.907
36.1555
0.320678
0.51871
-0.112415
0.111155
0.091087
0.0814978
0.0719116
0.0610335
0.0489073
0.0356966
0.0212279
0.00693954
35.7074
35.7076
35.7123
35.7235
35.7423
35.7706
35.8107
35.8646
35.937
35.9901
36.2685
35.9159
36.1662
0.318559
0.514503
-0.114602
0.108973
0.0892932
0.0799647
0.0706242
0.0599897
0.0481032
0.0351274
0.0208893
0.00682779
35.7081
35.707
35.7111
35.7219
35.7404
35.7686
35.8088
35.8633
35.9369
35.9945
36.266
35.9227
36.1751
0.316644
0.514562
-0.115755
0.10779
0.0881227
0.0789242
0.0697493
0.0592805
0.0475571
0.0347411
0.0206598
0.00675236
35.7125
35.7072
35.7105
35.7211
35.7396
35.7677
35.808
35.8628
35.9371
35.9977
36.2645
35.9263
36.1813
0.314311
0.511113
-0.116302
0.106735
0.0874371
0.07839
0.0693025
0.0589191
0.0472792
0.0345445
0.0205438
0.00671504
35.8032
35.8023
35.8129
35.8327
35.8605
35.8957
35.9373
35.9823
36.0385
35.8778
36.4753
35.8991
36.1373
0.403698
0.599521
-0.030497
0.18275
0.15608
0.138651
0.120612
0.101037
0.0801015
0.0580391
0.0346896
0.0114552
35.7976
35.8005
35.8119
35.8317
35.8596
35.8947
35.9363
35.9813
36.0374
35.879
36.4701
35.8972
36.1374
0.40373
0.60096
-0.0312838
0.18242
0.155594
0.138188
0.12022
0.100716
0.0798525
0.0578622
0.0345831
0.011419
35.7936
35.798
35.8098
35.8297
35.8575
35.8926
35.9341
35.979
36.035
35.8805
36.466
35.8952
36.137
0.40331
0.598614
-0.0327908
0.181126
0.154519
0.137264
0.119436
0.100076
0.0793567
0.0575101
0.0343728
0.011349
35.7895
35.7946
35.8068
35.8268
35.8545
35.8894
35.9307
35.9754
36.0312
35.8821
36.4607
35.8928
36.1356
0.402599
0.597822
-0.0345918
0.179457
0.152956
0.135891
0.118269
0.0991239
0.0786198
0.056987
0.0340607
0.0112454
35.7851
35.7906
35.8029
35.8229
35.8504
35.8852
35.9262
35.9707
36.0261
35.8839
36.4539
35.8898
36.1331
0.400446
0.595163
-0.0370767
0.177147
0.150882
0.134077
0.116734
0.0978713
0.0776508
0.0562992
0.0336506
0.0111096
35.7802
35.7859
35.7983
35.8182
35.8455
35.8799
35.9206
35.9648
36.0198
35.8859
36.4455
35.8859
36.1295
0.397412
0.592069
-0.0400761
0.174284
0.148331
0.131851
0.114848
0.0963337
0.0764617
0.0554553
0.0331477
0.0109432
35.775
35.7807
35.7931
35.8127
35.8396
35.8737
35.9141
35.9578
36.0123
35.8881
36.435
35.8809
36.1248
0.393702
0.588322
-0.0435791
0.1709
0.145329
0.129237
0.112635
0.0945303
0.0750676
0.0544661
0.0325582
0.0107483
35.7694
35.7751
35.7873
35.8065
35.8331
35.8667
35.9066
35.9499
36.0037
35.8905
36.4224
35.8751
36.119
0.389386
0.583994
-0.0475493
0.167041
0.141915
0.126268
0.110124
0.0924844
0.0734865
0.0533445
0.03189
0.0105273
35.7635
35.769
35.7809
35.7998
35.8258
35.8589
35.8983
35.9411
35.9942
35.8931
36.4074
35.8686
36.1121
0.384537
0.579152
-0.0519437
0.162761
0.138133
0.122982
0.107346
0.090223
0.0717395
0.0521056
0.0311519
0.0102833
35.7573
35.7627
35.7743
35.7926
35.818
35.8505
35.8893
35.9317
35.984
35.8957
36.3899
35.8613
36.1041
0.379223
0.573868
-0.0567103
0.158119
0.134036
0.119424
0.104341
0.0877771
0.0698506
0.0507664
0.0303543
0.0100196
35.751
35.7561
35.7673
35.785
35.8098
35.8415
35.8797
35.9218
35.9732
35.8983
36.37
35.8533
36.0951
0.373519
0.568225
-0.0617885
0.153183
0.129679
0.115644
0.101149
0.085181
0.0678466
0.049346
0.0295083
0.00973993
35.7446
35.7495
35.7601
35.7772
35.8012
35.8322
35.8698
35.9115
35.9622
35.9008
36.348
35.8447
36.0854
0.367517
0.562306
-0.0671093
0.148024
0.125128
0.111696
0.0978183
0.0824726
0.0657567
0.0478651
0.0286264
0.00944836
35.7382
35.7428
35.7529
35.7693
35.7925
35.8227
35.8596
35.9011
35.9512
35.9032
36.3243
35.8359
36.0756
0.361306
0.556205
-0.0725962
0.142722
0.120449
0.10764
0.0943975
0.0796926
0.0636123
0.0463461
0.0277219
0.00914931
35.7319
35.7362
35.7458
35.7614
35.7837
35.8131
35.8493
35.8907
35.9405
35.9054
36.2995
35.8273
36.0654
0.354983
0.550014
-0.0781654
0.137358
0.115716
0.103538
0.0909398
0.0768839
0.0614467
0.0448125
0.0268088
0.00884741
35.7258
35.7298
35.7388
35.7537
35.7751
35.8035
35.8392
35.8805
35.9304
35.9076
36.2744
35.8193
36.0557
0.348637
0.543832
-0.0837278
0.132017
0.111003
0.0994555
0.0875003
0.0740913
0.0592942
0.0432887
0.0259016
0.00854751
35.7201
35.7237
35.7321
35.7462
35.7666
35.7942
35.8293
35.8707
35.9211
35.9098
36.2501
35.8126
36.0471
0.342388
0.537759
-0.0891894
0.126787
0.106388
0.0954595
0.0841356
0.0713606
0.0571903
0.0417995
0.0250152
0.00825451
35.7148
35.7181
35.7258
35.7391
35.7586
35.7853
35.8198
35.8614
35.9128
35.9122
36.2274
35.8077
36.0405
0.336325
0.531891
-0.094454
0.121755
0.101949
0.0916174
0.0809023
0.0687379
0.0551702
0.0403702
0.0241646
0.00797335
35.71
35.7129
35.7201
35.7325
35.7511
35.777
35.811
35.8529
35.9055
35.9147
36.2069
35.8048
36.036
0.330554
0.526323
-0.0994244
0.117005
0.0977612
0.087996
0.0778564
0.0662683
0.0532688
0.0390251
0.0233642
0.00770885
35.7058
35.7084
35.7149
35.7265
35.7443
35.7694
35.803
35.8453
35.8992
35.9174
36.189
35.8042
36.034
0.325171
0.521145
-0.104005
0.112621
0.0939003
0.0846596
0.0750519
0.0639954
0.0515195
0.037788
0.0226282
0.00746564
35.7024
35.7046
35.7104
35.7212
35.7383
35.7627
35.7959
35.8386
35.894
35.9202
36.1739
35.8055
36.0341
0.320263
0.516437
-0.108103
0.10868
0.0904357
0.0816689
0.0725397
0.0619604
0.0499537
0.036681
0.0219697
0.00724807
35.6999
35.7015
35.7066
35.7168
35.7331
35.7569
35.7898
35.8329
35.8897
35.923
36.1615
35.8077
36.036
0.3159
0.512183
-0.111637
0.105253
0.0874319
0.0790799
0.0703662
0.0602007
0.0486003
0.0357243
0.0214007
0.00706012
35.6983
35.6993
35.7037
35.7132
35.7289
35.7522
35.7848
35.8284
35.8864
35.9255
36.1513
35.8103
36.039
0.312514
0.509371
-0.114486
0.102412
0.0849471
0.0769426
0.0685728
0.0587492
0.0474843
0.0349357
0.0209318
0.00690534
35.6978
35.6979
35.7015
35.7105
35.7257
35.7486
35.7811
35.825
35.884
35.9279
36.1433
35.8131
36.0422
0.310216
0.504948
-0.116858
0.100069
0.0830165
0.0752952
0.0671933
0.0576335
0.0466268
0.0343299
0.0205718
0.00678667
35.6986
35.6973
35.7002
35.7087
35.7236
35.7462
35.7786
35.8227
35.8825
35.9299
36.1368
35.8157
36.0453
0.308171
0.504914
-0.11813
0.098782
0.081752
0.0741767
0.0662556
0.0568753
0.0460444
0.0339185
0.0203276
0.00670647
35.7029
35.6975
35.6996
35.7079
35.7227
35.7452
35.7775
35.8218
35.8819
35.9319
36.1331
35.8151
36.0477
0.305709
0.501356
-0.118741
0.0976701
0.081019
0.073603
0.0657767
0.0564889
0.0457479
0.033709
0.0202041
0.00666667
35.7946
35.7939
35.8045
35.824
35.8514
35.8861
35.9271
35.9716
36.0272
35.8723
36.4627
35.8892
36.1278
0.40165
0.596157
-0.0257021
0.178697
0.154265
0.137831
0.120394
0.101278
0.0806299
0.0586739
0.0352407
0.0117095
35.789
35.7921
35.8034
35.823
35.8504
35.885
35.926
35.9704
36.0259
35.8734
36.4572
35.8872
36.1278
0.401632
0.597554
-0.0265295
0.178313
0.153738
0.137337
0.119976
0.100937
0.0803659
0.0584869
0.0351285
0.0116715
35.785
35.7895
35.8013
35.8209
35.8483
35.8828
35.9236
35.9678
36.0231
35.8747
36.4524
35.8847
36.127
0.401141
0.595091
-0.0281312
0.176934
0.152587
0.136348
0.119139
0.100256
0.07984
0.0581142
0.0349063
0.0115977
35.7808
35.7861
35.7982
35.8178
35.845
35.8793
35.9199
35.9639
36.0188
35.8759
36.446
35.8817
36.1249
0.400322
0.594088
-0.0300783
0.175117
0.150906
0.134879
0.117895
0.099243
0.0790581
0.0575602
0.0345765
0.0114885
35.7763
35.7819
35.7942
35.8138
35.8408
35.8748
35.915
35.9586
36.013
35.8771
36.4377
35.8777
36.1214
0.397905
0.591254
-0.0327452
0.172621
0.148676
0.132936
0.116256
0.0979099
0.0780293
0.0568315
0.0341428
0.0113452
35.7714
35.7772
35.7895
35.8089
35.8355
35.8691
35.9089
35.9519
36.0057
35.8784
36.4271
35.8723
36.1164
0.394602
0.587862
-0.035974
0.169528
0.145931
0.130551
0.114242
0.0962723
0.076766
0.0559367
0.0336105
0.0111694
35.7661
35.7719
35.7841
35.8031
35.8293
35.8624
35.9016
35.9441
35.997
35.8796
36.4139
35.8655
36.1096
0.390566
0.58377
-0.0397521
0.165871
0.1427
0.127748
0.111877
0.0943502
0.0752836
0.0548871
0.0329862
0.0109633
35.7603
35.7661
35.778
35.7967
35.8224
35.8548
35.8933
35.9351
35.9869
35.8807
36.3976
35.8573
36.1011
0.38587
0.579049
-0.0440417
0.161699
0.139022
0.12456
0.10919
0.0921676
0.073601
0.053696
0.0322778
0.0107295
35.7543
35.7599
35.7715
35.7897
35.8147
35.8464
35.8841
35.9251
35.9756
35.8815
36.3778
35.8477
36.0905
0.380589
0.573768
-0.0487977
0.157068
0.134945