/*--------------------------------*- C++ -*----------------------------------*\
| =========                 |                                                 |
| \\      /  F ield         | OpenFOAM: The Open Source CFD Toolbox           |
|  \\    /   O peration     | Version:  2306                                  |
|   \\  /    A nd           | Website:  www.openfoam.com                      |
|    \\/     M anipulation  |                                                 |
\*---------------------------------------------------------------------------*/
FoamFile
{
    version     2.0;
    format      ascii;
    arch        "LSB;label=32;scalar=64";
    class       volScalarField;
    location    "1.8";
    object      p;
}
// * * * * * * * * * * * * * * * * * * * * * * * * * * * * * * * * * * * * * //

dimensions      [0 2 -2 0 0 0 0];

internalField   nonuniform List<scalar> 
288632
(
43.9735
43.965
43.9735
43.9927
44.02
44.0544
44.0964
44.1291
44.2345
44.1397
44.3697
44.2572
44.3364
-0.225911
-0.131343
-0.401179
-0.158009
-0.241013
-0.203166
-0.171759
-0.140555
-0.109116
-0.0776953
-0.0468324
-0.0157581
43.9671
43.9632
43.9726
43.9918
44.0192
44.0536
44.0957
44.1286
44.2336
44.1393
44.3687
44.2561
44.3362
-0.226373
-0.130638
-0.402363
-0.158739
-0.241869
-0.203921
-0.172389
-0.14107
-0.109515
-0.0779789
-0.0470027
-0.0158157
43.9639
43.9609
43.9707
43.9901
44.0175
44.0519
44.094
44.1274
44.2317
44.1392
44.367
44.2549
44.3361
-0.228211
-0.13396
-0.404626
-0.160738
-0.243626
-0.205439
-0.173664
-0.142107
-0.110317
-0.078548
-0.0473428
-0.015929
43.9598
43.9579
43.968
43.9875
44.0149
44.0494
44.0915
44.1255
44.2286
44.1386
44.3642
44.254
44.3358
-0.231194
-0.136308
-0.407911
-0.163418
-0.246194
-0.207675
-0.175557
-0.143649
-0.11151
-0.0793948
-0.0478485
-0.016097
43.9556
43.9542
43.9646
43.9841
44.0115
44.0459
44.0882
44.1229
44.2246
44.1378
44.3605
44.2528
44.3353
-0.234747
-0.140889
-0.412157
-0.167212
-0.249599
-0.210626
-0.178049
-0.145679
-0.113078
-0.0805082
-0.0485132
-0.0163175
43.9511
43.9499
43.9604
43.9799
44.0072
44.0417
44.084
44.1196
44.2196
44.1369
44.356
44.2514
44.3344
-0.239843
-0.145809
-0.417319
-0.171766
-0.253751
-0.214239
-0.181105
-0.148167
-0.115002
-0.0818733
-0.049328
-0.0165877
43.9462
43.9452
43.9557
43.9751
44.0023
44.0367
44.0792
44.1157
44.2137
44.1359
44.351
44.2499
44.3335
-0.246121
-0.152113
-0.423367
-0.177165
-0.258616
-0.218473
-0.184683
-0.151081
-0.117254
-0.0834717
-0.050282
-0.0169039
43.9411
43.9401
43.9505
43.9697
43.9968
44.0311
44.0736
44.1112
44.2071
44.1348
44.3455
44.2485
44.3328
-0.253375
-0.159145
-0.430194
-0.183287
-0.264124
-0.223269
-0.188736
-0.154381
-0.119804
-0.0852814
-0.051362
-0.0172619
43.9357
43.9346
43.9449
43.9639
43.9906
44.0248
44.0674
44.1062
44.1998
44.1336
44.3399
44.2474
44.3324
-0.261464
-0.166976
-0.437724
-0.190056
-0.2702
-0.22856
-0.193207
-0.15802
-0.122616
-0.0872769
-0.0525528
-0.0176566
43.9301
43.9289
43.9389
43.9576
43.9841
44.0181
44.0607
44.1007
44.192
44.1317
44.3353
44.2468
44.3326
-0.270268
-0.175456
-0.445846
-0.197373
-0.276757
-0.234271
-0.198031
-0.161947
-0.12565
-0.0894296
-0.0538374
-0.0180823
43.9244
43.923
43.9327
43.951
43.9771
44.011
44.0537
44.095
44.1839
44.1292
44.3322
44.2471
44.3339
-0.279651
-0.184462
-0.454446
-0.205129
-0.2837
-0.240319
-0.203139
-0.166104
-0.128861
-0.091708
-0.0551969
-0.0185329
43.9186
43.917
43.9264
43.9442
43.9699
44.0036
44.0463
44.089
44.1758
44.1275
44.3295
44.2485
44.3365
-0.289468
-0.193853
-0.463394
-0.213209
-0.290927
-0.246612
-0.208454
-0.17043
-0.132202
-0.0940782
-0.0566111
-0.0190016
43.9128
43.911
43.92
43.9374
43.9626
43.996
44.0389
44.0829
44.1678
44.1266
44.3278
44.2514
44.3408
-0.299576
-0.203484
-0.472554
-0.221488
-0.298328
-0.253055
-0.213895
-0.174857
-0.135621
-0.0965037
-0.0580583
-0.0194811
43.9071
43.9051
43.9136
43.9305
43.9553
43.9884
44.0314
44.0769
44.1601
44.1264
44.3274
44.256
44.3472
-0.309808
-0.213202
-0.481783
-0.229834
-0.305786
-0.259548
-0.219377
-0.179317
-0.139065
-0.0989467
-0.0595157
-0.0199641
43.9016
43.8994
43.9075
43.9238
43.9481
43.9808
44.024
44.071
44.1531
44.1272
44.3285
44.2628
44.3559
-0.320012
-0.222855
-0.490933
-0.238117
-0.313184
-0.265986
-0.224812
-0.183738
-0.14248
-0.101368
-0.0609602
-0.0204428
43.8964
43.8939
43.9016
43.9173
43.9411
43.9736
44.0169
44.0654
44.1467
44.129
44.3313
44.2717
44.3669
-0.330014
-0.232286
-0.499854
-0.246202
-0.320399
-0.272264
-0.230113
-0.18805
-0.145808
-0.103729
-0.0623685
-0.0209095
43.8917
43.8889
43.896
43.9112
43.9344
43.9666
44.0101
44.0602
44.1413
44.1317
44.3357
44.2826
44.3804
-0.339656
-0.241343
-0.508399
-0.253955
-0.327312
-0.27828
-0.23519
-0.192179
-0.148997
-0.10599
-0.0637172
-0.0213563
43.8874
43.8843
43.8909
43.9056
43.9282
43.9601
44.0038
44.0554
44.1367
44.1353
44.3416
44.2955
44.396
-0.348773
-0.249869
-0.516417
-0.261246
-0.333805
-0.28393
-0.239959
-0.196058
-0.151991
-0.108113
-0.0649833
-0.0217759
43.8837
43.8803
43.8864
43.9004
43.9226
43.9542
43.9981
44.0512
44.1331
44.1395
44.3488
44.3097
44.413
-0.357222
-0.257754
-0.523777
-0.267956
-0.339767
-0.28912
-0.244338
-0.199618
-0.154739
-0.110061
-0.0661454
-0.0221608
43.8807
43.8769
43.8824
43.8959
43.9176
43.949
43.9931
44.0476
44.1304
44.1441
44.3568
44.3246
44.4306
-0.364856
-0.264811
-0.530334
-0.273958
-0.345089
-0.293756
-0.24825
-0.202799
-0.157193
-0.111801
-0.0671833
-0.0225046
43.8785
43.8741
43.8791
43.8921
43.9134
43.9445
43.9888
44.0445
44.1284
44.1487
44.3651
44.3388
44.448
-0.37156
-0.27104
-0.535993
-0.279178
-0.349687
-0.297761
-0.251627
-0.205543
-0.159311
-0.113303
-0.0680785
-0.0228011
43.8773
43.8722
43.8765
43.889
43.9099
43.9409
43.9854
44.0421
44.1271
44.153
44.3728
44.3518
44.4642
-0.377221
-0.276141
-0.540623
-0.283472
-0.353464
-0.301054
-0.254406
-0.207802
-0.161055
-0.114538
-0.0688151
-0.0230449
43.8772
43.8709
43.8746
43.8867
43.9073
43.9382
43.9828
44.0404
44.1262
44.1566
44.3796
44.3628
44.478
-0.38176
-0.280371
-0.544165
-0.286844
-0.35637
-0.303588
-0.25654
-0.209536
-0.162392
-0.115486
-0.06938
-0.0232317
43.8771
43.8702
43.8734
43.8852
43.9056
43.9364
43.9811
44.0393
44.1258
44.1593
44.3844
44.371
44.4887
-0.385108
-0.283078
-0.54653
-0.289105
-0.358337
-0.305298
-0.257986
-0.210712
-0.163299
-0.116129
-0.0697629
-0.023358
43.8827
43.8708
43.8729
43.8846
43.9048
43.9356
43.9803
44.0388
44.1257
44.161
44.3877
44.3752
44.4957
-0.38725
-0.28533
-0.547637
-0.290404
-0.359349
-0.306165
-0.258726
-0.211312
-0.163761
-0.116456
-0.0699569
-0.0234212
43.9664
43.9624
43.9718
43.991
44.0183
44.0526
44.0946
44.1274
44.2324
44.1379
44.3673
44.2549
44.3352
-0.227244
-0.132353
-0.40271
-0.159464
-0.241695
-0.203876
-0.172151
-0.140721
-0.109134
-0.0776328
-0.0467541
-0.0157172
43.9601
43.9605
43.9709
43.9902
44.0175
44.0519
44.0939
44.127
44.2315
44.1386
44.3627
44.2537
44.3351
-0.227678
-0.131662
-0.403912
-0.160209
-0.242567
-0.204645
-0.172791
-0.141244
-0.109538
-0.0779201
-0.0469265
-0.0157755
43.9569
43.9583
43.9689
43.9884
44.0158
44.0502
44.0922
44.1257
44.2294
44.1386
44.3602
44.2525
44.3352
-0.22971
-0.135056
-0.406216
-0.162245
-0.24435
-0.206185
-0.174083
-0.142294
-0.11035
-0.0784961
-0.0472706
-0.01589
43.9528
43.9552
43.9662
43.9857
44.0131
44.0475
44.0897
44.1237
44.2263
44.1382
44.3567
44.2515
44.335
-0.23268
-0.137441
-0.409557
-0.164972
-0.246958
-0.208456
-0.176003
-0.143857
-0.111558
-0.0793532
-0.0477823
-0.0160599
43.9486
43.9515
43.9627
43.9823
44.0096
44.044
44.0862
44.121
44.2221
44.1374
44.3525
44.2501
44.3343
-0.236173
-0.142114
-0.413873
-0.168828
-0.250416
-0.21145
-0.17853
-0.145914
-0.113146
-0.0804802
-0.0484549
-0.016283
43.944
43.9473
43.9586
43.9781
44.0054
44.0397
44.082
44.1176
44.2168
44.1364
44.3474
44.2485
44.3334
-0.241338
-0.147123
-0.419125
-0.173461
-0.254633
-0.215117
-0.181629
-0.148435
-0.115094
-0.0818623
-0.0492796
-0.0165564
43.9392
43.9426
43.9539
43.9733
44.0004
44.0347
44.0769
44.1135
44.2107
44.1356
44.3414
44.2468
44.3324
-0.247704
-0.153543
-0.425278
-0.178951
-0.259576
-0.219415
-0.185259
-0.151389
-0.117376
-0.0834809
-0.0502453
-0.0168764
43.9341
43.9374
43.9486
43.9678
43.9947
44.0289
44.0712
44.1087
44.2037
44.1341
44.3354
44.2452
44.3315
-0.255063
-0.160708
-0.432227
-0.185179
-0.265173
-0.224285
-0.189371
-0.154735
-0.11996
-0.0853138
-0.0513389
-0.0172388
43.9287
43.9319
43.9429
43.9619
43.9885
44.0225
44.0648
44.1035
44.1961
44.1316
44.3303
44.2437
44.3308
-0.263271
-0.168687
-0.439893
-0.192067
-0.271348
-0.229659
-0.193908
-0.158426
-0.12281
-0.0873354
-0.0525449
-0.0176384
43.923
43.9262
43.9369
43.9555
43.9818
44.0156
44.0579
44.0977
44.1878
44.1288
44.3256
44.2426
44.3308
-0.272205
-0.177329
-0.448164
-0.199513
-0.278015
-0.235461
-0.198805
-0.162409
-0.125886
-0.0895169
-0.0538462
-0.0180696
43.9173
43.9202
43.9307
43.9489
43.9748
44.0083
44.0506
44.0915
44.1793
44.1261
44.3213
44.2423
44.3316
-0.281728
-0.186508
-0.456924
-0.20741
-0.285076
-0.241606
-0.203991
-0.166628
-0.129142
-0.0918265
-0.0552239
-0.018526
43.9114
43.9142
43.9243
43.942
43.9675
44.0007
44.043
44.0851
44.1706
44.1238
44.3177
44.243
44.3336
-0.291697
-0.196082
-0.466041
-0.215636
-0.292428
-0.248003
-0.20939
-0.171017
-0.132531
-0.0942296
-0.0566572
-0.0190009
43.9056
43.9081
43.9178
43.9351
43.96
43.9929
44.0352
44.0786
44.1619
44.122
44.3149
44.2451
44.3373
-0.301956
-0.205902
-0.475376
-0.224067
-0.299958
-0.254554
-0.214917
-0.175512
-0.136001
-0.0966895
-0.0581244
-0.019487
43.8999
43.9022
43.9114
43.9281
43.9525
43.9851
44.0273
44.0721
44.1536
44.1209
44.3135
44.2489
44.343
-0.31235
-0.215815
-0.484785
-0.23257
-0.30755
-0.261157
-0.220488
-0.180041
-0.139496
-0.0991678
-0.0596025
-0.0199767
43.8944
43.8964
43.9052
43.9213
43.9452
43.9773
44.0196
44.0656
44.1459
44.1207
44.3134
44.2547
44.3509
-0.322712
-0.225661
-0.494115
-0.241009
-0.315081
-0.267706
-0.226013
-0.184533
-0.142962
-0.101625
-0.061068
-0.0204622
43.8892
43.891
43.8992
43.9148
43.938
43.9698
44.0121
44.0595
44.1389
44.1214
44.3151
44.2626
44.3612
-0.332873
-0.235281
-0.503214
-0.249248
-0.322429
-0.274095
-0.231403
-0.188913
-0.146343
-0.104021
-0.0624969
-0.0209356
43.8844
43.8859
43.8936
43.9086
43.9312
43.9626
44.0049
44.0537
44.1327
44.1231
44.3183
44.2725
44.3739
-0.342661
-0.244521
-0.511931
-0.257152
-0.329471
-0.280217
-0.236567
-0.19311
-0.149581
-0.106317
-0.0638657
-0.021389
43.8801
43.8813
43.8885
43.9028
43.9249
43.9559
43.9983
44.0483
44.1274
44.1256
44.3231
44.2844
44.3887
-0.351924
-0.253221
-0.520113
-0.264585
-0.336087
-0.285969
-0.241418
-0.197053
-0.152623
-0.108472
-0.065151
-0.0218147
43.8764
43.8772
43.8839
43.8976
43.9191
43.9498
43.9922
44.0435
44.1231
44.1287
44.3292
44.2974
44.4051
-0.360506
-0.261266
-0.527624
-0.271426
-0.342162
-0.291253
-0.245873
-0.200673
-0.155416
-0.110451
-0.066331
-0.0222055
43.8734
43.8738
43.8799
43.893
43.914
43.9443
43.9869
44.0394
44.1198
44.1323
44.3362
44.311
44.4222
-0.368264
-0.268468
-0.534317
-0.277547
-0.347587
-0.295975
-0.249854
-0.203908
-0.15791
-0.112219
-0.0673851
-0.0225545
43.8712
43.871
43.8765
43.8891
43.9096
43.9397
43.9823
44.0359
44.1172
44.136
44.3434
44.3244
44.4392
-0.375067
-0.274821
-0.540095
-0.282869
-0.352275
-0.300053
-0.253291
-0.206699
-0.160063
-0.113745
-0.0682944
-0.0228556
43.8699
43.869
43.8739
43.886
43.9061
43.9359
43.9787
44.0331
44.1154
44.1396
44.3503
44.3366
44.4549
-0.38082
-0.280024
-0.544822
-0.287248
-0.356126
-0.303408
-0.25612
-0.208997
-0.161836
-0.115
-0.0690427
-0.0231033
43.8698
43.8678
43.872
43.8837
43.9034
43.9331
43.9759
44.0311
44.1142
44.1425
44.3564
44.347
44.4684
-0.385428
-0.284329
-0.548439
-0.290685
-0.359088
-0.305989
-0.258292
-0.210762
-0.163196
-0.115964
-0.0696167
-0.023293
43.8698
43.8671
43.8708
43.8821
43.9017
43.9312
43.974
44.0297
44.1135
44.1447
44.3611
44.3547
44.4787
-0.388825
-0.287093
-0.550855
-0.292991
-0.361094
-0.30773
-0.259764
-0.211958
-0.164118
-0.116617
-0.0700057
-0.0234213
43.8753
43.8676
43.8703
43.8815
43.9009
43.9303
43.9732
44.0292
44.1133
44.1458
44.3654
44.3584
44.4851
-0.390998
-0.289356
-0.551987
-0.294308
-0.362123
-0.30861
-0.260517
-0.212567
-0.164587
-0.116949
-0.0702025
-0.0234854
43.9615
43.9586
43.9683
43.9875
44.0148
44.049
44.0908
44.1238
44.2279
44.1348
44.3627
44.251
44.3325
-0.230235
-0.136041
-0.405446
-0.162267
-0.242811
-0.204999
-0.17269
-0.140847
-0.109
-0.0773823
-0.046514
-0.0156019
43.9552
43.9567
43.9673
43.9867
44.0139
44.0482
44.0901
44.1233
44.2269
44.1357
44.3573
44.2498
44.3326
-0.230676
-0.135353
-0.406682
-0.163031
-0.243705
-0.205789
-0.173348
-0.141383
-0.109415
-0.0776761
-0.0466901
-0.0156614
43.952
43.9545
43.9654
43.9848
44.0121
44.0464
44.0883
44.1219
44.2247
44.1359
44.3543
44.2484
44.3327
-0.232828
-0.138877
-0.409065
-0.165142
-0.245544
-0.207373
-0.174675
-0.14246
-0.110246
-0.0782657
-0.047042
-0.0157783
43.9479
43.9513
43.9627
43.9822
44.0094
44.0437
44.0856
44.1198
44.2213
44.1354
44.3501
44.2471
44.3324
-0.235829
-0.141317
-0.412512
-0.167958
-0.24823
-0.209709
-0.176647
-0.144064
-0.111484
-0.0791432
-0.0475655
-0.0159521
43.9436
43.9476
43.9591
43.9787
44.0059
44.0401
44.082
44.1169
44.2168
44.1345
44.3452
44.2454
44.3316
-0.239458
-0.14618
-0.416973
-0.171945
-0.251795
-0.212791
-0.179244
-0.146174
-0.113112
-0.0802974
-0.0482539
-0.0161802
43.9391
43.9433
43.9549
43.9744
44.0015
44.0356
44.0775
44.1131
44.2111
44.1334
44.3391
44.2434
44.3303
-0.24479
-0.151374
-0.422404
-0.176734
-0.256142
-0.216566
-0.182429
-0.148762
-0.11511
-0.0817133
-0.0490982
-0.0164599
43.9342
43.9385
43.9501
43.9694
43.9963
44.0303
44.0722
44.1087
44.2044
44.1321
44.3321
44.2412
44.3288
-0.251376
-0.158028
-0.428769
-0.18241
-0.26124
-0.220993
-0.186162
-0.151796
-0.11745
-0.0833721
-0.0500873
-0.0167875
43.929
43.9333
43.9448
43.9639
43.9905
44.0243
44.0662
44.1035
44.1968
44.1293
44.3256
44.2388
44.3271
-0.258984
-0.165467
-0.435964
-0.188851
-0.267015
-0.226011
-0.190392
-0.155233
-0.120102
-0.0852514
-0.0512078
-0.0171586
43.9235
43.9278
43.9391
43.9578
43.9841
44.0176
44.0594
44.0976
44.1884
44.1255
44.3195
44.2364
44.3256
-0.267472
-0.173746
-0.443904
-0.195977
-0.273391
-0.23155
-0.195062
-0.159027
-0.123028
-0.0873253
-0.0524443
-0.0175681
43.9179
43.922
43.933
43.9513
43.9772
44.0104
44.052
44.0912
44.1792
44.1217
44.3131
44.2342
44.3244
-0.276713
-0.182718
-0.452477
-0.203685
-0.280277
-0.237534
-0.200105
-0.163124
-0.126188
-0.0895644
-0.0537791
-0.0180101
43.912
43.9159
43.9266
43.9445
43.9699
44.0028
44.0442
44.0843
44.1696
44.1178
44.3068
44.2324
44.3237
-0.286567
-0.192249
-0.461559
-0.211862
-0.287576
-0.243875
-0.205449
-0.167464
-0.129535
-0.0919362
-0.055193
-0.0184782
43.9062
43.9098
43.9201
43.9375
43.9624
43.9947
44.0359
44.077
44.1598
44.114
44.3009
44.2314
44.3241
-0.296886
-0.202195
-0.471018
-0.220385
-0.295179
-0.25048
-0.211014
-0.171984
-0.13302
-0.0944054
-0.0566648
-0.0189656
43.9003
43.9037
43.9135
43.9304
43.9546
43.9865
44.0275
44.0695
44.1499
44.1105
44.2957
44.2315
44.3257
-0.307509
-0.212401
-0.480708
-0.229124
-0.302971
-0.257248
-0.216717
-0.176614
-0.13659
-0.0969343
-0.0581722
-0.0194647
43.8945
43.8977
43.907
43.9233
43.9468
43.9782
44.0189
44.0619
44.1402
44.1075
44.2916
44.2329
44.3289
-0.318271
-0.222705
-0.490479
-0.237942
-0.310831
-0.264073
-0.222467
-0.181282
-0.140189
-0.0994837
-0.0596917
-0.0199679
43.889
43.8919
43.9007
43.9163
43.9392
43.97
44.0104
44.0544
44.1309
44.1052
44.2887
44.2362
44.3342
-0.329001
-0.232945
-0.500174
-0.246698
-0.318633
-0.270847
-0.228173
-0.185915
-0.14376
-0.102013
-0.0611991
-0.020467
43.8837
43.8863
43.8946
43.9095
43.9317
43.962
44.0022
44.047
44.1224
44.1037
44.2874
44.2414
44.3417
-0.339527
-0.242953
-0.509633
-0.255249
-0.32625
-0.277458
-0.233742
-0.190436
-0.147244
-0.10448
-0.0626696
-0.0209538
43.8789
43.8812
43.8889
43.9031
43.9246
43.9543
43.9942
44.04
44.1147
44.1031
44.2877
44.2487
44.3515
-0.349672
-0.252568
-0.518699
-0.263455
-0.333553
-0.283797
-0.239081
-0.194769
-0.150584
-0.106845
-0.0640789
-0.0214204
43.8745
43.8765
43.8836
43.8972
43.918
43.9471
43.9868
44.0335
44.1079
44.1033
44.2897
44.2578
44.3633
-0.359274
-0.261623
-0.527213
-0.271176
-0.340417
-0.289756
-0.244098
-0.198841
-0.153722
-0.109067
-0.065403
-0.0218587
43.8707
43.8723
43.8789
43.8918
43.9119
43.9405
43.9801
44.0275
44.1021
44.1043
44.293
44.2684
44.3768
-0.368172
-0.269997
-0.535031
-0.278284
-0.346723
-0.295231
-0.248709
-0.202582
-0.156605
-0.111108
-0.0666189
-0.0222612
43.8677
43.8689
43.8748
43.8871
43.9066
43.9347
43.974
44.0223
44.0974
44.1059
44.2973
44.2793
44.3913
-0.376213
-0.277497
-0.542
-0.284644
-0.352356
-0.300125
-0.252829
-0.205926
-0.159181
-0.112932
-0.0677056
-0.0226209
43.8654
43.8661
43.8714
43.8831
43.902
43.9297
43.9689
44.0179
44.0937
44.1078
44.3021
44.29
44.4058
-0.383271
-0.284107
-0.548017
-0.290175
-0.357225
-0.304354
-0.256388
-0.208812
-0.161404
-0.114506
-0.0686435
-0.0229312
43.8641
43.864
43.8687
43.8798
43.8983
43.9256
43.9647
44.0143
44.0908
44.1098
44.307
44.3
44.4194
-0.389231
-0.289527
-0.552944
-0.294727
-0.361226
-0.307833
-0.259318
-0.21119
-0.163236
-0.115802
-0.0694155
-0.0231866
43.864
43.8628
43.8668
43.8774
43.8955
43.9225
43.9615
44.0116
44.0888
44.1115
44.3115
44.3086
44.431
-0.394006
-0.294001
-0.556715
-0.298296
-0.364304
-0.31051
-0.261568
-0.213015
-0.164641
-0.116797
-0.0700077
-0.0233823
43.8639
43.8621
43.8655
43.8758
43.8936
43.9204
43.9594
44.0099
44.0875
44.1128
44.315
44.3151
44.4399
-0.397528
-0.296882
-0.559236
-0.300694
-0.366388
-0.312316
-0.263093
-0.214252
-0.165594
-0.117471
-0.0704092
-0.0235148
43.8694
43.8626
43.865
43.8751
43.8928
43.9195
43.9585
44.0091
44.087
44.1135
44.3185
44.3183
44.445
-0.39977
-0.299224
-0.560424
-0.302056
-0.367459
-0.31323
-0.263872
-0.214883
-0.166079
-0.117814
-0.0706126
-0.023581
43.9551
43.9531
43.9631
43.9823
44.0094
44.0434
44.0851
44.1183
44.2211
44.1299
44.3554
44.2458
44.328
-0.235639
-0.141258
-0.409256
-0.166398
-0.24436
-0.206529
-0.173368
-0.14092
-0.108706
-0.0769345
-0.0461056
-0.0154103
43.9488
43.9512
43.9621
43.9814
44.0085
44.0426
44.0843
44.1177
44.22
44.1309
44.3494
44.2444
44.3281
-0.236134
-0.140602
-0.410545
-0.167178
-0.245286
-0.207352
-0.174051
-0.141476
-0.109135
-0.0772381
-0.0462873
-0.0154715
43.9455
43.9489
43.9602
43.9796
44.0067
44.0407
44.0824
44.1162
44.2176
44.131
44.3458
44.2428
44.3282
-0.238471
-0.144341
-0.413055
-0.169406
-0.247211
-0.209001
-0.17543
-0.142594
-0.109996
-0.0778479
-0.0466508
-0.0155922
43.9414
43.9458
43.9574
43.9768
44.0039
44.0379
44.0795
44.1138
44.2138
44.1304
44.341
44.2411
44.3276
-0.241516
-0.146843
-0.416656
-0.172356
-0.250012
-0.211435
-0.177481
-0.144258
-0.111278
-0.0787558
-0.0471919
-0.0157715
43.9371
43.942
43.9538
43.9732
44.0002
44.0341
44.0757
44.1106
44.2088
44.1293
44.335
44.2389
44.3264
-0.245378
-0.152003
-0.42134
-0.176541
-0.253738
-0.214649
-0.180182
-0.146448
-0.112966
-0.0799506
-0.0479037
-0.0160072
43.9326
43.9376
43.9495
43.9688
43.9956
44.0293
44.0709
44.1064
44.2025
44.1279
44.3276
44.2362
44.3244
-0.250993
-0.157482
-0.42704
-0.181568
-0.258282
-0.218588
-0.183497
-0.149137
-0.115037
-0.081417
-0.0487774
-0.0162964
43.9276
43.9328
43.9446
43.9638
43.9903
44.0238
44.0651
44.1014
44.195
44.1252
44.3198
44.2331
44.3219
-0.257923
-0.164498
-0.43373
-0.187525
-0.263614
-0.223208
-0.187384
-0.15229
-0.117466
-0.0831362
-0.0498015
-0.0166354
43.9224
43.9275
43.9392
43.958
43.9842
44.0174
44.0585
44.0955
44.1864
44.1207
44.3124
44.2294
44.319
-0.265932
-0.172353
-0.441298
-0.194289
-0.269659
-0.228448
-0.191792
-0.155865
-0.120219
-0.0850852
-0.0509626
-0.0170195
43.9169
43.9219
43.9333
43.9518
43.9775
44.0103
44.0512
44.0888
44.1768
44.1157
44.3042
44.2254
44.3158
-0.274868
-0.18109
-0.449655
-0.201777
-0.276337
-0.234238
-0.196662
-0.159813
-0.12326
-0.0872376
-0.0522446
-0.0174437
43.9111
43.916
43.9271
43.9451
43.9703
44.0026
44.0431
44.0814
44.1663
44.1102
44.2954
44.221
44.3123
-0.284602
-0.190565
-0.458685
-0.209881
-0.283557
-0.240496
-0.201926
-0.164081
-0.126546
-0.0895632
-0.0536297
-0.017902
43.9052
43.9099
43.9206
43.9381
43.9627
43.9944
44.0345
44.0733
44.1551
44.1043
44.2862
44.2167
44.309
-0.294983
-0.200636
-0.468259
-0.218485
-0.291215
-0.247134
-0.207508
-0.168605
-0.13003
-0.0920285
-0.0550981
-0.0183878
43.8993
43.9036
43.9139
43.9308
43.9547
43.9858
44.0253
44.0648
44.1435
44.0981
44.2769
44.2125
44.3059
-0.305862
-0.21115
-0.478238
-0.227459
-0.299199
-0.254054
-0.213326
-0.173321
-0.13366
-0.0945972
-0.0566278
-0.0188939
43.8933
43.8974
43.9072
43.9234
43.9466
43.977
44.0159
44.0558
44.1316
44.0919
44.2678
44.2089
44.3035
-0.317065
-0.221945
-0.48847
-0.236667
-0.307389
-0.261151
-0.219292
-0.178157
-0.137382
-0.0972303
-0.0581958
-0.0194127
43.8875
43.8913
43.9005
43.916
43.9384
43.968
44.0063
44.0465
44.1197
44.0859
44.2593
44.2063
44.3022
-0.328422
-0.232851
-0.498794
-0.245964
-0.315658
-0.268314
-0.225314
-0.183036
-0.141137
-0.099887
-0.0597778
-0.019936
43.8818
43.8853
43.894
43.9087
43.9302
43.959
43.9966
44.0372
44.1082
44.0803
44.2518
44.2051
44.3023
-0.33975
-0.243694
-0.509047
-0.255203
-0.323872
-0.275429
-0.231294
-0.187882
-0.144866
-0.102525
-0.0613484
-0.0204557
43.8765
43.8797
43.8878
43.9017
43.9223
43.9503
43.9872
44.0281
44.0972
44.0752
44.2457
44.2057
44.3044
-0.350866
-0.254297
-0.519057
-0.264231
-0.331897
-0.282378
-0.237136
-0.192614
-0.148508
-0.1051
-0.0628818
-0.0209629
43.8716
43.8744
43.8819
43.8951
43.9148
43.9419
43.9781
44.0192
44.0869
44.071
44.241
44.2082
44.3085
-0.361583
-0.264488
-0.528656
-0.2729
-0.339598
-0.289046
-0.24274
-0.197154
-0.152001
-0.10757
-0.0643524
-0.0214494
43.8671
43.8696
43.8765
43.8889
43.9077
43.934
43.9696
44.0109
44.0776
44.0676
44.2381
44.212
44.3146
-0.371732
-0.274088
-0.537677
-0.28106
-0.34684
-0.295318
-0.248011
-0.201424
-0.155285
-0.109893
-0.065735
-0.0219067
43.8633
43.8654
43.8716
43.8833
43.9013
43.9267
43.9617
44.0032
44.0695
44.0651
44.2367
44.2167
44.3225
-0.381135
-0.282966
-0.545965
-0.288575
-0.353499
-0.301085
-0.252857
-0.205348
-0.158304
-0.112027
-0.0670057
-0.022327
43.8602
43.8619
43.8674
43.8783
43.8956
43.9203
43.9547
43.9964
44.0625
44.0634
44.2366
44.2227
44.3315
-0.389634
-0.29092
-0.553358
-0.295302
-0.35945
-0.306243
-0.257191
-0.208858
-0.161004
-0.113936
-0.0681418
-0.0227028
43.8579
43.859
43.8639
43.8741
43.8907
43.9147
43.9487
43.9905
44.0568
44.0624
44.2374
44.2289
44.341
-0.397094
-0.297923
-0.559743
-0.301151
-0.364596
-0.310701
-0.260935
-0.211889
-0.163335
-0.115584
-0.0691229
-0.0230272
43.8566
43.8569
43.8611
43.8707
43.8867
43.9102
43.9438
43.9857
44.0522
44.0619
44.2387
44.2348
44.35
-0.403391
-0.303672
-0.564973
-0.305967
-0.368826
-0.31437
-0.264018
-0.214387
-0.165255
-0.116941
-0.0699308
-0.0232943
43.8564
43.8556
43.8591
43.8682
43.8836
43.9067
43.94
43.9821
44.0487
44.0617
44.2402
44.2399
44.3578
-0.408432
-0.308395
-0.568981
-0.309741
-0.372083
-0.317194
-0.266388
-0.216305
-0.16673
-0.117984
-0.0705509
-0.0234991
43.8563
43.8549
43.8578
43.8665
43.8816
43.9044
43.9375
43.9797
44.0465
44.0617
44.2413
44.2437
44.3636
-0.412143
-0.311452
-0.571659
-0.312278
-0.374287
-0.319101
-0.267994
-0.217606
-0.16773
-0.118691
-0.0709715
-0.0236378
43.8618
43.8554
43.8573
43.8658
43.8807
43.9034
43.9364
43.9786
44.0454
44.0618
44.2426
44.2461
44.3667
-0.41449
-0.313879
-0.572928
-0.313707
-0.37542
-0.320065
-0.268814
-0.218268
-0.168239
-0.11905
-0.0711848
-0.0237073
43.9477
43.9462
43.9564
43.9755
44.0023
44.036
44.0774
44.1109
44.2121
44.1233
44.346
44.2387
44.3215
-0.243132
-0.148351
-0.41418
-0.171916
-0.246341
-0.208418
-0.174134
-0.140899
-0.108215
-0.0762647
-0.0455146
-0.0151377
43.9414
43.9444
43.9553
43.9745
44.0014
44.0351
44.0765
44.1102
44.2108
44.1243
44.3395
44.2371
44.3216
-0.243711
-0.147748
-0.415535
-0.172649
-0.247305
-0.209282
-0.174851
-0.141481
-0.108663
-0.0765812
-0.0457034
-0.0152013
43.9382
43.942
43.9534
43.9726
43.9995
44.0332
44.0745
44.1085
44.2081
44.1243
44.3352
44.2353
44.3215
-0.246351
-0.151805
-0.418223
-0.175061
-0.249347
-0.21102
-0.1763
-0.142652
-0.109564
-0.0772176
-0.0460823
-0.0153268
43.934
43.9388
43.9505
43.9698
43.9965
44.0301
44.0714
44.1058
44.2038
44.1235
44.3294
44.2331
44.3205
-0.249317
-0.154292
-0.422021
-0.178196
-0.252306
-0.213586
-0.178455
-0.144396
-0.110905
-0.0781658
-0.0466466
-0.0155136
43.9297
43.9349
43.9469
43.9661
43.9927
44.0261
44.0672
44.1021
44.1982
44.1221
44.322
44.2302
44.3186
-0.253593
-0.159896
-0.427011
-0.182655
-0.256247
-0.216976
-0.181296
-0.146694
-0.112672
-0.0794144
-0.0473897
-0.0157593
43.925
43.9305
43.9425
43.9615
43.9879
44.021
44.0619
44.0974
44.191
44.1195
44.3136
44.2265
44.3157
-0.259597
-0.165773
-0.433078
-0.188
-0.261056
-0.221133
-0.184784
-0.149516
-0.114841
-0.0809481
-0.0483023
-0.0160611
43.92
43.9256
43.9375
43.9563
43.9823
44.0151
44.0557
44.0916
44.1825
44.1149
44.305
44.222
44.3118
-0.267019
-0.173285
-0.440207
-0.194337
-0.266703
-0.226012
-0.188877
-0.152828
-0.117387
-0.0827475
-0.049373
-0.016415
43.9147
43.9202
43.9319
43.9504
43.9759
44.0083
44.0484
44.0848
44.1726
44.1089
44.2954
44.2165
44.3069
-0.275588
-0.181705
-0.448279
-0.201538
-0.273111
-0.231551
-0.193524
-0.156586
-0.120276
-0.0847893
-0.0505878
-0.0168166
43.9091
43.9145
43.9259
43.9439
43.9688
44.0006
44.0403
44.077
44.1615
44.102
44.2845
44.21
44.3011
-0.28515
-0.191068
-0.457201
-0.209515
-0.280197
-0.237677
-0.198662
-0.160742
-0.12347
-0.0870463
-0.0519306
-0.0172604
43.9033
43.9084
43.9195
43.9369
43.9612
43.9923
44.0313
44.0683
44.1492
44.0943
44.2723
44.2025
44.2943
-0.295567
-0.201227
-0.466852
-0.218157
-0.287866
-0.244305
-0.204221
-0.165238
-0.126925
-0.0894875
-0.0533829
-0.0177403
43.8973
43.9022
43.9128
43.9296
43.9531
43.9834
44.0216
44.0587
44.1359
44.0856
44.2591
44.1941
44.2866
-0.306688
-0.212032
-0.477095
-0.227339
-0.29601
-0.251344
-0.210123
-0.170011
-0.130592
-0.0920781
-0.0549241
-0.0182497
43.8912
43.8959
43.9059
43.922
43.9447
43.9741
44.0113
44.0483
44.1218
44.0761
44.245
44.1851
44.2782
-0.318345
-0.223322
-0.487782
-0.236926
-0.304511
-0.258689
-0.216282
-0.17499
-0.134417
-0.0947803
-0.0565314
-0.0187809
43.8852
43.8895
43.899
43.9143
43.936
43.9643
44.0005
44.0373
44.1071
44.066
44.2303
44.1758
44.2693
-0.330361
-0.234922
-0.498751
-0.246772
-0.313241
-0.266231
-0.222605
-0.180102
-0.138344
-0.0975534
-0.0581809
-0.019326
43.8793
43.8832
43.8921
43.9065
43.9272
43.9545
43.9895
44.0259
44.0922
44.0555
44.2155
44.1669
44.2604
-0.342546
-0.24665
-0.509832
-0.256722
-0.322064
-0.273851
-0.228993
-0.185265
-0.142309
-0.100354
-0.0598467
-0.0198765
43.8735
43.8772
43.8854
43.8989
43.9185
43.9446
43.9784
44.0143
44.0773
44.0451
44.2011
44.1586
44.2521
-0.354711
-0.258319
-0.520844
-0.266618
-0.330839
-0.281428
-0.235345
-0.190399
-0.146252
-0.103138
-0.0615023
-0.0204237
43.8681
43.8714
43.8789
43.8916
43.91
43.9349
43.9674
44.0026
44.0627
44.035
44.1877
44.1515
44.245
-0.366651
-0.269736
-0.531607
-0.276297
-0.33942
-0.288837
-0.241556
-0.195418
-0.150105
-0.105859
-0.0631203
-0.0209584
43.8631
43.866
43.8728
43.8846
43.9019
43.9255
43.9567
43.9913
44.0488
44.0254
44.1757
44.1448
44.2395
-0.378173
-0.280716
-0.541938
-0.285597
-0.347662
-0.295953
-0.24752
-0.200238
-0.153805
-0.108471
-0.0646737
-0.0214717
43.8585
43.8611
43.8672
43.878
43.8943
43.9167
43.9467
43.9805
44.036
44.0167
44.1654
44.1398
44.2358
-0.389081
-0.291063
-0.551653
-0.294357
-0.355421
-0.302652
-0.253135
-0.204775
-0.157288
-0.110929
-0.0661355
-0.0219548
43.8546
43.8568
43.8622
43.8721
43.8873
43.9086
43.9374
43.9706
44.0244
44.0089
44.1569
44.136
44.2339
-0.399194
-0.300632
-0.560586
-0.302429
-0.362559
-0.308816
-0.258301
-0.208949
-0.160492
-0.11319
-0.0674799
-0.022399
43.8514
43.8531
43.8578
43.8669
43.8811
43.9013
43.9291
43.9616
44.0143
44.0023
44.15
44.1334
44.2332
-0.408335
-0.30921
-0.568558
-0.309658
-0.368945
-0.314332
-0.262925
-0.212684
-0.163358
-0.115214
-0.0686829
-0.0227965
43.8491
43.8502
43.8542
43.8624
43.8758
43.8951
43.9219
43.9538
44.0056
43.9968
44.1444
44.1317
44.2335
-0.416357
-0.316751
-0.575448
-0.315943
-0.374469
-0.319104
-0.266922
-0.215912
-0.165835
-0.116962
-0.0697224
-0.0231399
43.8477
43.848
43.8513
43.8589
43.8715
43.8899
43.916
43.9474
43.9986
43.9925
44.1401
44.1303
44.234
-0.423126
-0.32295
-0.581094
-0.32112
-0.379012
-0.323032
-0.270216
-0.218573
-0.167877
-0.118403
-0.0705791
-0.0234229
43.8475
43.8467
43.8491
43.8562
43.8682
43.886
43.9115
43.9425
43.9932
43.9893
44.1369
44.1289
44.2342
-0.428539
-0.328014
-0.585425
-0.325171
-0.382512
-0.326056
-0.272747
-0.220617
-0.169446
-0.11951
-0.071237
-0.02364
43.8473
43.8459
43.8478
43.8544
43.866
43.8834
43.9084
43.9393
43.9895
43.9872
44.1342
44.1278
44.2338
-0.432514
-0.33131
-0.588321
-0.327898
-0.384881
-0.3281
-0.274464
-0.222004
-0.17051
-0.120261
-0.0716834
-0.0237872
43.8528
43.8464
43.8472
43.8536
43.865
43.8822
43.907
43.9377
43.9877
43.9866
44.1333
44.1267
44.2331
-0.435005
-0.333857
-0.589704
-0.329421
-0.386098
-0.329132
-0.27534
-0.222711
-0.171052
-0.120643
-0.0719102
-0.0238612
43.9393
43.938
43.9481
43.967
43.9935
44.0269
44.0679
44.1016
44.2008
44.115
44.3343
44.2297
44.3131
-0.25272
-0.157322
-0.42017
-0.178837
-0.24875
-0.210594
-0.174922
-0.140725
-0.107484
-0.0753401
-0.0447213
-0.0147776
43.933
43.9361
43.9471
43.9661
43.9926
44.0259
44.067
44.1008
44.1994
44.116
44.3273
44.2281
44.3131
-0.2534
-0.156843
-0.421605
-0.179451
-0.249752
-0.211506
-0.175681
-0.141339
-0.107955
-0.0756722
-0.0449188
-0.0148442
43.9297
43.9338
43.9451
43.9641
43.9905
44.0238
44.0647
44.0989
44.1963
44.1159
44.3222
44.2258
44.3127
-0.256121
-0.161435
-0.424548
-0.182131
-0.251953
-0.213356
-0.177216
-0.142576
-0.108904
-0.0763417
-0.0453166
-0.0149756
43.9255
43.9305
43.9422
43.9612
43.9875
44.0206
44.0613
44.0958
44.1915
44.1149
44.3152
44.2231
44.3112
-0.259513
-0.1635
-0.428565
-0.185506
-0.255107
-0.216087
-0.179502
-0.14442
-0.110319
-0.0773399
-0.0459098
-0.0151716
43.9212
43.9266
43.9384
43.9573
43.9834
44.0162
44.0567
44.0916
44.185
44.1126
44.3067
44.2193
44.3084
-0.264162
-0.16987
-0.433958
-0.19031
-0.259321
-0.219699
-0.182517
-0.146851
-0.112183
-0.0786553
-0.0466915