/*--------------------------------*- C++ -*----------------------------------*\
  =========                 |
  \\      /  F ield         | OpenFOAM: The Open Source CFD Toolbox
   \\    /   O peration     | Website:  https://openfoam.org
    \\  /    A nd           | Version:  11
     \\/     M anipulation  |
\*---------------------------------------------------------------------------*/
FoamFile
{
    format      ascii;
    class       volScalarField;
    location    "400";
    object      epsilon;
}
// * * * * * * * * * * * * * * * * * * * * * * * * * * * * * * * * * * * * * //

dimensions      [0 2 -3 0 0 0 0];

internalField   nonuniform List<scalar> 
729
(
31.858
151.436
255.556
320.922
353.832
347.03
316.263
257.882
105.311
7.02761
14.0393
39.0486
62.985
85.8622
100.156
101.282
90.1009
64.9509
0.162971
0.563042
1.14978
3.79152
10.3
21.2791
32.8831
40.6643
36.9658
0.0217081
0.049372
0.143843
0.292822
1.23422
4.92688
13.1578
22.1077
22.6025
0.0205508
0.0593768
0.136895
0.255029
0.638007
2.09567
6.74584
13.4214
14.3116
0.0227928
0.0681095
0.17222
0.322424
0.596461
1.47785
4.38532
8.83391
9.43188
0.0229603
0.0774977
0.177297
0.337694
0.610553
1.25619
3.22761
5.9349
6.17128
0.0231762
0.0791961
0.187298
0.35861
0.616884
1.14123
2.68442
4.46897
4.46407
0.0232453
0.0803509
0.187032
0.359292
0.617178
1.03834
1.974
2.82575
2.64137
118.214
426.143
570.913
663.847
713.365
711.739
660.148
560.863
451.833
9.07991
54.9363
106.627
152.417
186.129
202.827
201.629
199.08
257.809
0.193258
2.11374
10.2323
22.597
38.3445
53.4749
66.3094
83.5069
122.906
0.050551
0.13698
0.26544
2.32629
6.33801
14.6851
26.1025
41.6644
64.2911
0.0633451
0.0661216
0.153516
0.509309
1.64074
5.36109
12.677
23.3833
36.2419
0.0664898
0.0855474
0.169353
0.398194
1.03836
2.99493
7.47852
14.3258
21.7966
0.071872
0.0861353
0.191445
0.412472
0.910532
2.19598
5.05752
9.21948
13.3927
0.0726808
0.0877106
0.198339
0.43438
0.878837
1.83001
3.79201
6.46539
9.15913
0.0732167
0.0883899
0.201954
0.440492
0.868212
1.58503
2.7509
4.00498
5.20933
150.44
488.866
653.199
770.238
838.156
845.419
794.283
692.413
686.488
12.2058
74.5506
144.361
204.461
247.831
269.739
271.09
277.159
390.288
0.321741
4.85404
18.9998
40.079
62.4133
81.7282
98.0343
122.271
183.355
0.0999726
0.179799
1.36449
5.25501
13.7848
25.6866
40.7542
61.8567
95.0602
0.112509
0.115544
0.282338
0.990104
3.59346
9.6931
19.8904
34.4204
52.8792
0.119161
0.118166
0.238349
0.597334
1.74205
4.9603
11.3688
20.6819
31.2839
0.12386
0.124699
0.253913
0.558016
1.31448
3.30048
7.35259
13.0549
18.9508
0.124921
0.125761
0.263663
0.561277
1.17491
2.5503
5.25923
8.93302
12.745
0.12537
0.126682
0.267885
0.566742
1.12385
2.10151
3.69854
5.46362
7.16388
165.526
510.215
684.398
814.334
892.869
905.743
854.337
753.065
786.212
14.5094
82.7448
162.117
230.127
279.401
304.871
307.819
316.91
449.316
0.450117
6.67277
24.5696
50.4439
76.5927
98.7365
117.538
145.052
212.176
0.135551
0.320918
2.1683
8.00187
19.0219
33.2676
50.8252
74.8198
110.647
0.142864
0.151698
0.40189
1.53624
5.29861
13.0752
25.2564
41.8869
61.638
0.15541
0.147984
0.302627
0.785633
2.39861
6.62533
14.4045
25.094
36.3946
0.157343
0.153644
0.302953
0.678726
1.66669
4.23471
9.17871
15.7247
21.9817
0.160853
0.15519
0.31422
0.663525
1.41576
3.14155
6.43001
10.647
14.7046
0.160497
0.156145
0.318378
0.663411
1.32022
2.50483
4.42614
6.44751
8.2272
170.833
515.067
692.543
826.626
908.578
923.256
871.848
770.881
813.88
15.4369
84.9787
167.298
237.842
289.059
315.732
319.202
328.989
465.552
0.498417
7.28712
26.418
53.8289
81.2313
104.34
123.979
152.392
220.53
0.149716
0.348493
2.47231
9.03131
20.8807
35.9297
54.3295
79.1336
115.232
0.153326
0.169696
0.451061
1.77054
5.96604
14.3357
27.1999
44.4257
64.2554
0.168197
0.156547
0.325981
0.864674
2.66786
7.27245
15.5328
26.6133
37.9402
0.169581
0.164612
0.322469
0.726532
1.80918
4.60236
9.86514
16.6476
22.9046
0.173216
0.165922
0.332996
0.702331
1.51038
3.37315
6.8719
11.2398
15.3008
0.172863
0.1669
0.33703
0.699682
1.39511
2.65977
4.6971
6.78385
8.54956
166.02
510.535
684.286
814.401
892.998
905.878
854.468
753.175
786.386
14.5088
82.4409
162.023
230.173
279.489
304.962
307.911
316.995
449.436
0.425825
6.66102
24.5608
50.4517
76.6299
98.7863
117.593
145.109
212.248
0.12718
0.805091
2.13222
8.02222
19.0295
33.291
50.8558
74.856
110.691
0.142566
0.142712
0.395428
1.54231
5.30136
13.0866
25.2732
41.9093
61.6652
0.154874
0.149387
0.302122
0.785541
2.40004
6.63017
14.4139
25.1079
36.4117
0.15697
0.153104
0.302411
0.678368
1.66708
4.23702
9.18422
15.7334
21.9925
0.160397
0.155001
0.313918
0.663116
1.41578
3.14282
6.43352
10.6527
14.7122
0.160083
0.155824
0.317948
0.663023
1.32018
2.50561
4.42826
6.4509
8.23162
149.361
492.252
653.21
770.481
838.432
845.672
794.542
692.541
686.966
11.9496
74.3146
144.26
204.608
248.019
269.919
271.273
277.295
390.583
0.327827
5.1158
18.9285
40.103
62.4806
81.8201
98.136
122.367
183.508
0.0972836
0.249465
1.21916
5.40688
13.7625
25.7222
40.806
61.9173
95.1467
0.111569
0.117497
0.274982
1.00673
3.58917
9.71042
19.9172
34.4574
52.9295
0.119444
0.118269
0.237376
0.596824
1.74294
4.96671
11.3831
20.7045
31.3144
0.121957
0.124065
0.252772
0.557277
1.31471
3.3035
7.36087
13.0689
18.9697
0.124949
0.125308
0.263218
0.560431
1.17468
2.55196
5.2645
8.94241
12.7581
0.12466
0.126122
0.267056
0.565949
1.12363
2.10259
3.70182
5.46922
7.17165
112.046
438.132
571.454
664.305
713.709
712.038
660.594
560.538
453.135
7.52678
57.3102
106.942
152.778
186.422
203.078
201.911
199.157
258.438
0.228616
3.27037
10.043
22.678
38.4435
53.5821
66.4335
83.5989
123.172
0.0489454
0.182542
0.252285
2.32188
6.35123
14.719
26.1574
41.7244
64.4144
0.0613576
0.062187
0.151096
0.510142
1.64154
5.37224
12.7022
23.419
36.3042
0.0658607
0.0862174
0.168752
0.397382
1.03786
2.99885
7.49077
14.3473
21.8316
0.0711305
0.085179
0.186223
0.411221
0.910063
2.19773
5.06432
9.23277
13.4134
0.0720018
0.0872481
0.199112
0.433278
0.87827
1.83097
3.79636
6.47449
9.17322
0.0725177
0.0878121
0.200894
0.439404
0.86774
1.58575
2.75375
4.01059
5.21785
31.6589
145.232
256.32
321.915
354.71
347.473
318.353
254.98
106.971
3.98226
24.0098
38.6291
63.9144
86.1446
100.479
101.386
90.4252
65.5056
0.232269
0.330051
1.26144
3.80819
10.3842
21.3778
32.9677
40.7567
37.1406
0.0213841
0.0511338
0.143097
0.295852
1.237
4.95157
13.1931
22.1472
22.6705
0.0200712
0.0574568
0.135746
0.255285
0.637725
2.10134
6.75927
13.4405
14.3444
0.0223519
0.0683356
0.161211
0.32158
0.596099
1.47764
4.39043
8.84543
9.45132
0.0225332
0.0762951
0.181138
0.338336
0.609368
1.25555
3.22958
5.94269
6.1837
0.0227565
0.0783155
0.183788
0.356686
0.616114
1.14059
2.68549
4.47525
4.47345
0.0228196
0.0794323
0.185765
0.35794
0.61611
1.03766
1.97475
2.82971
2.64742
)
;

boundaryField
{
    inlet
    {
        type            fixedValue;
        value           uniform 14.855;
    }
    outlet
    {
        type            zeroGradient;
    }
    lowerWall
    {
        type            epsilonWallFunction;
        value           nonuniform List<scalar> 
162
(
31.858
118.214
150.44
165.526
170.833
166.02
149.361
112.046
31.6589
7.02761
9.07991
12.2058
14.5094
15.4369
14.5088
11.9496
7.52678
3.98226
0.162971
0.193258
0.321741
0.450117
0.498417
0.425825
0.327827
0.228616
0.232269
0.0217081
0.050551
0.0999726
0.135551
0.149716
0.12718
0.0972836
0.0489454
0.0213841
0.0205508
0.0633451
0.112509
0.142864
0.153326
0.142566
0.111569
0.0613576
0.0200712
0.0227928
0.0664898
0.119161
0.15541
0.168197
0.154874
0.119444
0.0658607
0.0223519
0.0229603
0.071872
0.12386
0.157343
0.169581
0.15697
0.121957
0.0711305
0.0225332
0.0231762
0.0726808
0.124921
0.160853
0.173216
0.160397
0.124949
0.0720018
0.0227565
0.0232453
0.0732167
0.12537
0.160497
0.172863
0.160083
0.12466
0.0725177
0.0228196
105.311
451.833
686.488
786.212
813.88
786.386
686.966
453.135
106.971
64.9509
257.809
390.288
449.316
465.552
449.436
390.583
258.438
65.5056
36.9658
122.906
183.355
212.176
220.53
212.248
183.508
123.172
37.1406
22.6025
64.2911
95.0602
110.647
115.232
110.691
95.1467
64.4144
22.6705
14.3116
36.2419
52.8792
61.638
64.2554
61.6652
52.9295
36.3042
14.3444
9.43188
21.7966
31.2839
36.3946
37.9402
36.4117
31.3144
21.8316
9.45132
6.17128
13.3927
18.9508
21.9817
22.9046
21.9925
18.9697
13.4134
6.1837
4.46407
9.15913
12.745
14.7046
15.3008
14.7122
12.7581
9.17322
4.47345
2.64137
5.20933
7.16388
8.2272
8.54956
8.23162
7.17165
5.21785
2.64742
)
;
    }
    upperWall
    {
        type            epsilonWallFunction;
        value           nonuniform List<scalar> 
162
(
31.858
31.6589
7.02761
3.98226
0.162971
0.232269
0.0217081
0.0213841
0.0205508
0.0200712
0.0227928
0.0223519
0.0229603
0.0225332
0.0231762
0.0227565
0.0232453
0.0228196
151.436
145.232
14.0393
24.0098
0.563042
0.330051
0.049372
0.0511338
0.0593768
0.0574568
0.0681095
0.0683356
0.0774977
0.0762951
0.0791961
0.0783155
0.0803509
0.0794323
255.556
256.32
39.0486
38.6291
1.14978
1.26144
0.143843
0.143097
0.136895
0.135746
0.17222
0.161211
0.177297
0.181138
0.187298
0.183788
0.187032
0.185765
320.922
321.915
62.985
63.9144
3.79152
3.80819
0.292822
0.295852
0.255029
0.255285
0.322424
0.32158
0.337694
0.338336
0.35861
0.356686
0.359292
0.35794
353.832
354.71
85.8622
86.1446
10.3
10.3842
1.23422
1.237
0.638007
0.637725
0.596461
0.596099
0.610553
0.609368
0.616884
0.616114
0.617178
0.61611
347.03
347.473
100.156
100.479
21.2791
21.3778
4.92688
4.95157
2.09567
2.10134
1.47785
1.47764
1.25619
1.25555
1.14123
1.14059
1.03834
1.03766
316.263
318.353
101.282
101.386
32.8831
32.9677
13.1578
13.1931
6.74584
6.75927
4.38532
4.39043
3.22761
3.22958
2.68442
2.68549
1.974
1.97475
257.882
254.98
90.1009
90.4252
40.6643
40.7567
22.1077
22.1472
13.4214
13.4405
8.83391
8.84543
5.9349
5.94269
4.46897
4.47525
2.82575
2.82971
105.311
106.971
64.9509
65.5056
36.9658
37.1406
22.6025
22.6705
14.3116
14.3444
9.43188
9.45132
6.17128
6.1837
4.46407
4.47345
2.64137
2.64742
)
;
    }
}


// ************************************************************************* //
