/*--------------------------------*- C++ -*----------------------------------*\
  =========                 |
  \\      /  F ield         | OpenFOAM: The Open Source CFD Toolbox
   \\    /   O peration     | Website:  https://openfoam.org
    \\  /    A nd           | Version:  11
     \\/     M anipulation  |
\*---------------------------------------------------------------------------*/
FoamFile
{
    format      ascii;
    class       volScalarField;
    location    "400";
    object      k;
}
// * * * * * * * * * * * * * * * * * * * * * * * * * * * * * * * * * * * * * //

dimensions      [0 2 -2 0 0 0 0];

internalField   nonuniform List<scalar> 
729
(
2.50723
6.94356
10.0912
11.7188
12.4955
12.3225
11.6699
9.95711
5.66369
0.617856
2.06803
2.81811
3.9666
4.85042
5.38484
5.41601
5.0285
4.06883
0.0873604
0.11524
0.289706
0.604309
1.17997
1.91728
2.56102
2.95346
2.78161
0.0193184
0.0369045
0.0632508
0.125043
0.275994
0.72621
1.39136
1.96669
1.99954
0.0188845
0.0367977
0.0668976
0.105271
0.180284
0.411794
0.890811
1.40979
1.47299
0.0197146
0.0428273
0.0752607
0.114373
0.176668
0.323013
0.668729
1.06672
1.11505
0.020326
0.0444303
0.0801199
0.123429
0.18026
0.290837
0.545307
0.818307
0.840227
0.02029
0.0465005
0.0810878
0.125085
0.180954
0.272712
0.482247
0.677347
0.677001
0.0203361
0.0464935
0.0816532
0.12618
0.180998
0.25604
0.39286
0.498975
0.477163
5.7803
23.5355
31.8875
37.0129
39.8161
40.1415
37.7919
32.3349
14.7403
0.94688
5.05466
9.30545
13.0195
15.7095
17.1382
17.1167
15.9951
10.1338
0.0900404
0.426689
1.41519
3.1018
5.10775
6.91498
8.21668
8.77653
6.18101
0.0356818
0.0823707
0.191804
0.556971
1.49493
2.93468
4.38063
5.33864
4.01096
0.037965
0.0790388
0.151588
0.302299
0.68778
1.55023
2.65971
3.49465
2.7361
0.041827
0.0948741
0.173922
0.293019
0.543235
1.06838
1.83639
2.43003
1.94901
0.0426348
0.098899
0.1854
0.311262
0.509952
0.868689
1.39669
1.75646
1.40844
0.0437119
0.103231
0.19174
0.320437
0.499588
0.767257
1.13846
1.35223
1.09316
0.043698
0.103726
0.193606
0.324286
0.497214
0.706833
0.918459
0.970563
0.750445
7.01465
27.5865
37.6899
44.424
48.4013
49.3879
47.1713
41.2914
19.4375
1.30116
6.70854
12.6851
17.5724
21.0319
22.8962
23.0066
21.6745
13.3389
0.118197
0.777277
2.6332
5.30433
7.98484
10.1779
11.6541
12.1045
8.06069
0.0531272
0.126216
0.408183
1.23718
2.82211
4.6802
6.38442
7.34574
5.20175
0.0579953
0.115953
0.237809
0.504585
1.22239
2.47216
3.863
4.76341
3.51814
0.06089
0.134625
0.23704
0.421134
0.816627
1.59722
2.59903
3.26035
2.47923
0.0617763
0.140147
0.250934
0.414894
0.700009
1.21654
1.91129
2.32291
1.7749
0.0625124
0.145264
0.259022
0.42083
0.658003
1.02522
1.50756
1.75712
1.36239
0.0625427
0.146023
0.260928
0.423951
0.644056
0.918558
1.19293
1.25194
0.927938
7.53745
29.0955
40.0018
47.537
52.1505
53.5121
51.2976
45.014
21.27
1.48986
7.49632
14.3092
19.8023
23.6917
25.8149
25.9802
24.4036
14.6477
0.146671
1.01571
3.40145
6.58718
9.62008
12.0341
13.6002
13.8767
8.88233
0.0656575
0.169214
0.595883
1.77391
3.69148
5.78056
7.61151
8.47383
5.75466
0.068593
0.141838
0.296148
0.679111
1.63358
3.10346
4.63881
5.49993
3.89606
0.0713275
0.159618
0.281579
0.510708
1.02496
1.97284
3.10538
3.74826
2.7421
0.0733935
0.166667
0.292559
0.484145
0.831751
1.4579
2.25287
2.65437
1.95929
0.0735918
0.171423
0.299359
0.481653
0.758462
1.19605
1.74713
1.99268
1.49862
0.0737366
0.172517
0.301553
0.48335
0.73243
1.05041
1.36125
1.40998
1.01757
7.68682
29.4839
40.6405
48.4247
53.2377
54.7138
52.4949
46.069
21.765
1.55106
7.72708
14.7945
20.477
24.5046
26.7129
26.8904
25.2172
14.9978
0.157986
1.09613
3.65469
7.00431
10.1494
12.635
14.2255
14.4196
9.1136
0.0699139
0.184918
0.669016
1.96816
3.99231
6.15453
8.02166
8.83054
5.91233
0.072172
0.151262
0.318558
0.748571
1.78651
3.32784
4.9072
5.73599
4.00546
0.0749093
0.168348
0.297853
0.544663
1.10423
2.10993
3.28334
3.90661
2.81913
0.0771956
0.17586
0.306658
0.508495
0.880688
1.54672
2.3732
2.76207
2.01372
0.0773289
0.180314
0.313064
0.50304
0.794441
1.25823
1.83119
2.0691
1.53884
0.0774771
0.181564
0.315334
0.503706
0.763175
1.09714
1.4189
1.46021
1.04395
7.53141
29.1132
40.0047
47.5442
52.1588
53.5199
51.3049
45.0208
21.2718
1.48435
7.46934
14.3064
19.8078
23.6991
25.8219
25.9864
24.4093
14.6496
0.141596
0.976955
3.38847
6.58954
9.62507
12.0392
13.6049
13.8807
8.88403
0.0625042
0.138175
0.586304
1.77792
3.69419
5.78378
7.61474
8.47661
5.756
0.0695609
0.14207
0.294725
0.680174
1.63473
3.1052
4.64089
5.50186
3.89708
0.0710375
0.159216
0.281162
0.510584
1.02527
1.97373
3.10673
3.7496
2.74289
0.0733167
0.16675
0.292577
0.483995
0.831807
1.45836
2.25374
2.65531
1.95989
0.073465
0.171051
0.298943
0.481398
0.758395
1.1963
1.74773
1.99339
1.49911
0.07361
0.172249
0.301248
0.483106
0.732345
1.05056
1.36164
1.41045
1.0179
7.06271
27.72
37.7047
44.4412
48.4177
49.4024
47.1844
41.3072
19.4383
1.32692
6.65833
12.6884
17.5865
21.0478
22.91
23.0186
21.6854
13.3412
0.116769
0.77048
2.63388
5.31075
7.99495
10.1877
11.6629
12.1119
8.06292
0.0535527
0.127195
0.406024
1.24121
2.82579
4.68595
6.39014
7.35077
5.20376
0.0578312
0.115661
0.236619
0.506023
1.22315
2.47488
3.86645
4.76681
3.5198
0.0601933
0.134098
0.236786
0.420876
0.816875
1.59848
2.60117
3.26269
2.48055
0.0618803
0.139987
0.250629
0.414491
0.699938
1.21716
1.91265
2.32455
1.77593
0.0621532
0.144671
0.258314
0.420315
0.657808
1.02555
1.5085
1.75835
1.36325
0.0623051
0.145539
0.260349
0.423473
0.643856
0.918751
1.19357
1.25277
0.928537
6.01027
23.9817
31.9306
37.0379
39.8344
40.1562
37.8038
32.3696
14.7255
1.10039
4.91463
9.32578
13.042
15.7335
17.1573
17.1339
16.0082
10.1288
0.0842855
0.435665
1.41418
3.11187
5.11972
6.927
8.22779
8.78476
6.18037
0.0351404
0.0827484
0.186215
0.559721
1.49842
2.94035
4.38698
5.34408
4.01183
0.0379391
0.0776016
0.149668
0.301744
0.687878
1.55234
2.66314
3.49824
2.73738
0.0414127
0.0942413
0.173765
0.292454
0.543203
1.0692
1.8383
2.43249
1.95027
0.0423541
0.0982008
0.184073
0.310553
0.509657
0.869048
1.39786
1.75819
1.40951
0.043426
0.102822
0.191145
0.319805
0.499272
0.767422
1.13928
1.35354
1.09411
0.0434194
0.103246
0.192896
0.323684
0.496927
0.706928
0.919056
0.971478
0.751122
2.5098
7.15152
10.1038
11.7294
12.5052
12.3388
11.6356
10.0489
5.62168
0.985305
1.47715
2.8965
3.96944
4.87204
5.39589
5.42933
5.02973
4.05532
0.0855418
0.170622
0.278608
0.611673
1.18478
1.92286
2.56694
2.95693
2.77854
0.0195907
0.0352037
0.0617906
0.124058
0.277117
0.727767
1.39426
1.96907
1.99957
0.0186079
0.0366926
0.0643986
0.104671
0.180203
0.411938
0.8922
1.4114
1.47383
0.0194662
0.0425765
0.0770716
0.114737
0.176398
0.323079
0.66929
1.06789
1.11602
0.0200579
0.0441913
0.0780929
0.122933
0.180058
0.290687
0.545507
0.819178
0.841119
0.0200471
0.0461167
0.0815005
0.124796
0.180691
0.272541
0.482389
0.678057
0.677845
0.0200874
0.0461387
0.0812927
0.125865
0.18078
0.255903
0.393007
0.499523
0.477805
)
;

boundaryField
{
    inlet
    {
        type            fixedValue;
        value           uniform 0.375;
    }
    outlet
    {
        type            zeroGradient;
    }
    lowerWall
    {
        type            kqRWallFunction;
        value           nonuniform List<scalar> 
162
(
2.50723
5.7803
7.01465
7.53745
7.68682
7.53141
7.06271
6.01027
2.5098
0.617856
0.94688
1.30116
1.48986
1.55106
1.48435
1.32692
1.10039
0.985305
0.0873604
0.0900404
0.118197
0.146671
0.157986
0.141596
0.116769
0.0842855
0.0855418
0.0193184
0.0356818
0.0531272
0.0656575
0.0699139
0.0625042
0.0535527
0.0351404
0.0195907
0.0188845
0.037965
0.0579953
0.068593
0.072172
0.0695609
0.0578312
0.0379391
0.0186079
0.0197146
0.041827
0.06089
0.0713275
0.0749093
0.0710375
0.0601933
0.0414127
0.0194662
0.020326
0.0426348
0.0617763
0.0733935
0.0771956
0.0733167
0.0618803
0.0423541
0.0200579
0.02029
0.0437119
0.0625124
0.0735918
0.0773289
0.073465
0.0621532
0.043426
0.0200471
0.0203361
0.043698
0.0625427
0.0737366
0.0774771
0.07361
0.0623051
0.0434194
0.0200874
5.66369
14.7403
19.4375
21.27
21.765
21.2718
19.4383
14.7255
5.62168
4.06883
10.1338
13.3389
14.6477
14.9978
14.6496
13.3412
10.1288
4.05532
2.78161
6.18101
8.06069
8.88233
9.1136
8.88403
8.06292
6.18037
2.77854
1.99954
4.01096
5.20175
5.75466
5.91233
5.756
5.20376
4.01183
1.99957
1.47299
2.7361
3.51814
3.89606
4.00546
3.89708
3.5198
2.73738
1.47383
1.11505
1.94901
2.47923
2.7421
2.81913
2.74289
2.48055
1.95027
1.11602
0.840227
1.40844
1.7749
1.95929
2.01372
1.95989
1.77593
1.40951
0.841119
0.677001
1.09316
1.36239
1.49862
1.53884
1.49911
1.36325
1.09411
0.677845
0.477163
0.750445
0.927938
1.01757
1.04395
1.0179
0.928537
0.751122
0.477805
)
;
    }
    upperWall
    {
        type            kqRWallFunction;
        value           nonuniform List<scalar> 
162
(
2.50723
2.5098
0.617856
0.985305
0.0873604
0.0855418
0.0193184
0.0195907
0.0188845
0.0186079
0.0197146
0.0194662
0.020326
0.0200579
0.02029
0.0200471
0.0203361
0.0200874
6.94356
7.15152
2.06803
1.47715
0.11524
0.170622
0.0369045
0.0352037
0.0367977
0.0366926
0.0428273
0.0425765
0.0444303
0.0441913
0.0465005
0.0461167
0.0464935
0.0461387
10.0912
10.1038
2.81811
2.8965
0.289706
0.278608
0.0632508
0.0617906
0.0668976
0.0643986
0.0752607
0.0770716
0.0801199
0.0780929
0.0810878
0.0815005
0.0816532
0.0812927
11.7188
11.7294
3.9666
3.96944
0.604309
0.611673
0.125043
0.124058
0.105271
0.104671
0.114373
0.114737
0.123429
0.122933
0.125085
0.124796
0.12618
0.125865
12.4955
12.5052
4.85042
4.87204
1.17997
1.18478
0.275994
0.277117
0.180284
0.180203
0.176668
0.176398
0.18026
0.180058
0.180954
0.180691
0.180998
0.18078
12.3225
12.3388
5.38484
5.39589
1.91728
1.92286
0.72621
0.727767
0.411794
0.411938
0.323013
0.323079
0.290837
0.290687
0.272712
0.272541
0.25604
0.255903
11.6699
11.6356
5.41601
5.42933
2.56102
2.56694
1.39136
1.39426
0.890811
0.8922
0.668729
0.66929
0.545307
0.545507
0.482247
0.482389
0.39286
0.393007
9.95711
10.0489
5.0285
5.02973
2.95346
2.95693
1.96669
1.96907
1.40979
1.4114
1.06672
1.06789
0.818307
0.819178
0.677347
0.678057
0.498975
0.499523
5.66369
5.62168
4.06883
4.05532
2.78161
2.77854
1.99954
1.99957
1.47299
1.47383
1.11505
1.11602
0.840227
0.841119
0.677001
0.677845
0.477163
0.477805
)
;
    }
}


// ************************************************************************* //
