/*--------------------------------*- C++ -*----------------------------------*\
  =========                 |
  \\      /  F ield         | OpenFOAM: The Open Source CFD Toolbox
   \\    /   O peration     | Website:  https://openfoam.org
    \\  /    A nd           | Version:  11
     \\/     M anipulation  |
\*---------------------------------------------------------------------------*/
FoamFile
{
    format      ascii;
    class       volScalarField;
    location    "400";
    object      nut;
}
// * * * * * * * * * * * * * * * * * * * * * * * * * * * * * * * * * * * * * //

dimensions      [0 2 -1 0 0 0 0];

internalField   nonuniform List<scalar> 
729
(
0.0177588
0.0286534
0.0358624
0.0385131
0.0397151
0.0393795
0.0387548
0.034601
0.0274137
0.00488888
0.0274165
0.0183043
0.0224824
0.0246603
0.0260562
0.0260657
0.0252575
0.0229402
0.00421466
0.00212279
0.0065697
0.00866857
0.0121659
0.0155474
0.0179513
0.019306
0.0188379
0.00154726
0.00248268
0.00250314
0.00480571
0.00555454
0.00963374
0.0132416
0.0157459
0.0159201
0.00156179
0.00205242
0.00294223
0.00391081
0.00458494
0.00728249
0.0105871
0.0133276
0.0136444
0.0015347
0.00242368
0.00296002
0.0036514
0.00470949
0.00635406
0.00917785
0.0115929
0.0118639
0.00161946
0.00229251
0.00325853
0.00406024
0.0047898
0.0060602
0.0082917
0.0101546
0.0102958
0.00159869
0.00245728
0.00315952
0.00392673
0.00477722
0.00586512
0.00779706
0.00923968
0.00924039
0.0016012
0.00242124
0.00320828
0.00398822
0.00477727
0.00568223
0.00703674
0.0079299
0.00775796
0.0254376
0.116986
0.160293
0.185729
0.200008
0.203756
0.194715
0.167775
0.043279
0.00888691
0.0418569
0.0730886
0.100091
0.119331
0.130331
0.130777
0.115661
0.0358498
0.00377556
0.007752
0.0176158
0.0383194
0.0612348
0.0804775
0.0916348
0.0830168
0.0279763
0.00226676
0.0044579
0.0124736
0.0120017
0.0317346
0.0527821
0.0661659
0.0615655
0.022521
0.00204784
0.00850316
0.0134716
0.0161486
0.0259479
0.0403444
0.050222
0.047005
0.0185907
0.00236811
0.0094696
0.0160753
0.0194061
0.0255782
0.0343011
0.0405842
0.0370978
0.0156849
0.0022762
0.0102199
0.0161592
0.0211398
0.0257043
0.0309273
0.034714
0.0301172
0.0133305
0.00236604
0.0109348
0.0166825
0.0212744
0.0255598
0.0289515
0.0307617
0.0254534
0.0117423
0.00234723
0.010955
0.0167042
0.0214863
0.0256273
0.0283686
0.0275986
0.0211685
0.00972969
0.0294368
0.140102
0.195726
0.230597
0.251555
0.259664
0.25213
0.221613
0.0495323
0.0124836
0.054331
0.100318
0.135924
0.160636
0.174914
0.175725
0.15255
0.0410295
0.00390796
0.0112019
0.0328445
0.0631809
0.0919384
0.114074
0.124688
0.107848
0.031893
0.00254095
0.00797413
0.0109896
0.0262142
0.0519987
0.0767477
0.0900145
0.0785104
0.0256178
0.00269055
0.0104728
0.0180273
0.0231436
0.0374239
0.0567457
0.0675224
0.0593283
0.0210661
0.00280028
0.0138038
0.0212165
0.0267218
0.0344531
0.0462873
0.0534753
0.0462574
0.017683
0.00277302
0.0141759
0.0223191
0.0277632
0.0335502
0.0403569
0.0447151
0.0371992
0.014961
0.0028154
0.0151013
0.0229016
0.0283974
0.033166
0.0370925
0.0388929
0.0311063
0.013107
0.00280803
0.0151485
0.0228736
0.0285423
0.0332185
0.0361347
0.0346291
0.0258184
0.0108176
0.0308906
0.149328
0.210423
0.249749
0.274139
0.284538
0.277209
0.242161
0.0517889
0.0137684
0.0611221
0.113671
0.153358
0.180803
0.196729
0.197348
0.169128
0.0429761
0.00430134
0.0139149
0.0423811
0.0774165
0.108746
0.132005
0.14163
0.119479
0.0334657
0.00286225
0.00803011
0.0147382
0.0353927
0.0644747
0.0903985
0.10259
0.0863744
0.0269366
0.00296401
0.0119356
0.0196406
0.0270187
0.0453275
0.0662957
0.0766802
0.0649949
0.0221638
0.00294631
0.015495
0.0235795
0.0298792
0.039418
0.0528712
0.0602523
0.0503885
0.018594
0.00308113
0.0162714
0.0254269
0.0310813
0.0373573
0.0451723
0.049766
0.0403257
0.0157173
0.00303022
0.017042
0.0256681
0.0314669
0.0365695
0.0409823
0.042725
0.0335655
0.0137459
0.00304888
0.0171546
0.0257056
0.0316944
0.0365703
0.0396443
0.0376784
0.027751
0.011327
0.0311289
0.151897
0.214641
0.255309
0.280749
0.29182
0.28447
0.247784
0.0523842
0.0140261
0.0632359
0.117748
0.158667
0.186961
0.203407
0.203879
0.173962
0.0434838
0.00450698
0.0148392
0.0455034
0.0820271
0.114131
0.137702
0.146903
0.122796
0.0338965
0.00293834
0.00883094
0.0162934
0.0386024
0.0686984
0.0948809
0.106595
0.0886862
0.0273016
0.00305747
0.0121348
0.020248
0.028484
0.0481467
0.0695259
0.0796787
0.0666538
0.0224718
0.00300259
0.0162934
0.0244937
0.0308777
0.0411341
0.0550932
0.0624634
0.0516112
0.0188526
0.00316265
0.0169089
0.0262461
0.0320303
0.0385839
0.0467827
0.0513818
0.041244
0.0159337
0.00310699
0.017636
0.0264892
0.0324269
0.0376078
0.0422401
0.0439171
0.0342803
0.0139288
0.00312527
0.0177765
0.0265531
0.032636
0.0375736
0.0407307
0.038576
0.0282877
0.0114726
0.0307493
0.149416
0.210487
0.249804
0.274187
0.28458
0.277245
0.2422
0.0517865
0.0136672
0.0609066
0.113691
0.153413
0.18086
0.196776
0.197384
0.169161
0.0429763
0.00423755
0.0128959
0.0420736
0.0774599
0.108806
0.13205
0.141661
0.119501
0.0334671
0.00276466
0.00213431
0.0145096
0.0354626
0.0645436
0.0904355
0.102615
0.0863894
0.0269384
0.00305461
0.0127289
0.0197702
0.0269967
0.045368
0.0663124
0.0766983
0.0650056
0.0221657
0.0029325
0.0152723
0.023549
0.0298681
0.0394185
0.0528805
0.0602651
0.0503967
0.0185959
0.00308199
0.0163451
0.0254755
0.0310784
0.0373536
0.0451765
0.0497748
0.0403322
0.0157192
0.00302836
0.0169888
0.0256214
0.0314529
0.0365628
0.0409832
0.0427311
0.0335711
0.0137477
0.00304629
0.0171364
0.0256883
0.031681
0.036563
0.0396433
0.0376822
0.0277548
0.0113285
0.0300571
0.140489
0.195876
0.230702
0.251642
0.259738
0.252187
0.221743
0.049502
0.0132611
0.0536906
0.10044
0.136044
0.160757
0.175008
0.17579
0.152629
0.0410125
0.00374327
0.0104436
0.0329853
0.0632961
0.0920722
0.114164
0.124746
0.107897
0.0318839
0.00265317
0.00583676
0.0121698
0.0256439
0.0522185
0.07683
0.0900613
0.0785409
0.0256144
0.00269788
0.0102468
0.0183247
0.0228912
0.0375152
0.0567691
0.0675522
0.0593493
0.021066
0.00273009
0.0136842
0.0212578
0.0267119
0.0344565
0.0463005
0.0534954
0.0462731
0.0176846
0.0028258
0.0142158
0.0223653
0.0277461
0.0335375
0.0403609
0.0447285
0.0372117
0.0149634
0.00278251
0.0150323
0.022815
0.0283707
0.0331529
0.0370919
0.0389024
0.0311171
0.0131101
0.0028026
0.015115
0.022843
0.0285179
0.0332044
0.0361313
0.0346354
0.025826
0.0108199
0.0290158
0.11814
0.160574
0.185852
0.200096
0.203819
0.194706
0.168233
0.0430681
0.0144785
0.0379308
0.0731919
0.100201
0.119507
0.130459
0.130856
0.115806
0.0357272
0.00279667
0.00522338
0.0179221
0.0384311
0.0613638
0.080596
0.0917111
0.0830809
0.02791
0.00227061
0.00337597
0.0123703
0.0121436
0.0318165
0.0528641
0.0662186
0.0616024
0.0224877
0.00211129
0.00871534
0.0133428
0.016063
0.0259427
0.0403701
0.0502519
0.04703
0.0185762
0.00234359
0.00927108
0.0161033
0.0193709
0.0255876
0.0343086
0.0406021
0.0371172
0.0156801
0.00226975
0.0101892
0.0163753
0.0211075
0.0256878
0.0309283
0.0347257
0.0301331
0.0133304
0.00235721
0.0109059
0.0165148
0.0212445
0.025544
0.0289487
0.0307708
0.0254673
0.0117447
0.00233973
0.0109253
0.0166694
0.0214595
0.0256117
0.0283635
0.027606
0.0211787
0.00973133
0.017907
0.0316941
0.0358449
0.0384639
0.0396779
0.0394336
0.0382749
0.0356428
0.0265893
0.0219409
0.0081791
0.0195467
0.0221872
0.0247991
0.0260792
0.0261672
0.0251792
0.0225951
0.00283536
0.00793833
0.00553812
0.00884223
0.0121658
0.0155659
0.0179881
0.0193075
0.018708
0.0016153
0.00218128
0.00240136
0.00468184
0.00558724
0.00962685
0.0132612
0.015756
0.0158729
0.00155262
0.00210891
0.00274958
0.00386253
0.00458281
0.00726793
0.0105991
0.0133392
0.0136287
0.00152578
0.00238746
0.00331617
0.00368433
0.00469799
0.00635757
0.00918257
0.0116033
0.0118603
0.0016069
0.00230367
0.00303009
0.00402004
0.00478838
0.00605704
0.00829271
0.0101629
0.010297
0.00158943
0.00244406
0.00325271
0.0039297
0.00476931
0.00586109
0.00779853
0.00924609
0.00924402
0.0015914
0.002412
0.00320171
0.00398329
0.00477401
0.00567988
0.00703931
0.0079362
0.00776106
)
;

boundaryField
{
    inlet
    {
        type            calculated;
        value           uniform 0.000851986;
    }
    outlet
    {
        type            calculated;
        value           nonuniform List<scalar> 
81
(
0.0016012
0.00234723
0.00280803
0.00304888
0.00312527
0.00304629
0.0028026
0.00233973
0.0015914
0.00242124
0.010955
0.0151485
0.0171546
0.0177765
0.0171364
0.015115
0.0109253
0.002412
0.00320828
0.0167042
0.0228736
0.0257056
0.0265531
0.0256883
0.022843
0.0166694
0.00320171
0.00398822
0.0214863
0.0285423
0.0316944
0.032636
0.031681
0.0285179
0.0214595
0.00398329
0.00477727
0.0256273
0.0332185
0.0365703
0.0375736
0.036563
0.0332044
0.0256117
0.00477401
0.00568223
0.0283686
0.0361347
0.0396443
0.0407307
0.0396433
0.0361313
0.0283635
0.00567988
0.00703674
0.0275986
0.0346291
0.0376784
0.038576
0.0376822
0.0346354
0.027606
0.00703931
0.0079299
0.0211685
0.0258184
0.027751
0.0282877
0.0277548
0.025826
0.0211787
0.0079362
0.00775796
0.00972969
0.0108176
0.011327
0.0114726
0.0113285
0.0108199
0.00973133
0.00776106
)
;
    }
    lowerWall
    {
        type            nutkWallFunction;
        Cmu             0.09;
        kappa           0.41;
        E               9.8;
        value           nonuniform List<scalar> 
162
(
0.00165828
0.00242755
0.00265197
0.00274053
0.00276522
0.00273953
0.00266025
0.00247119
0.00165906
0.000876414
0.00106431
0.00122997
0.0013082
0.0013324
0.001306
0.001241
0.00113963
0.00108375
0.000359621
0.000364618
0.000412817
0.000455497
0.000471184
0.000448247
0.000410535
0.000353784
0.000356183
0.00017976
0.00023862
0.000286453
0.000315615
0.000324813
0.000308587
0.000287502
0.000236948
0.00018093
0.000177876
0.000245522
0.00029819
0.000321992
0.000329569
0.000324062
0.000297803
0.000245445
0.000176663
0.00018146
0.000256695
0.000304914
0.0003278
0.000335225
0.00032719
0.000303312
0.000255525
0.000180396
0.000184046
0.00025896
0.000306937
0.000332107
0.000339863
0.000331948
0.000307173
0.000258175
0.000182917
0.000183895
0.000261942
0.000308605
0.000332517
0.000340131
0.000332255
0.000307792
0.000261154
0.000182872
0.000184088
0.000261904
0.000308674
0.000332816
0.000340429
0.000332554
0.000308136
0.000261136
0.000183042
0.00240506
0.00372468
0.00422787
0.0044061
0.00445282
0.00440628
0.00422795
0.00372297
0.00239689
0.00206803
0.0031377
0.00355815
0.00371394
0.00375433
0.00371417
0.00355843
0.00313699
0.0020649
0.00173868
0.00250302
0.00282591
0.00295414
0.00298907
0.0029544
0.00282627
0.0025029
0.0017378
0.00149582
0.00205456
0.00231341
0.00242262
0.00245272
0.00242288
0.00231382
0.00205476
0.00149583
0.00130144
0.00172565
0.00193527
0.00202749
0.00205327
0.00202773
0.00193569
0.00172602
0.00130177
0.00114651
0.00147847
0.00164982
0.00172737
0.00174933
0.0017276
0.00165022
0.00147891
0.00114697
0.00100798
0.00127515
0.00141677
0.00148202
0.00150064
0.00148223
0.00141715
0.00127559
0.00100846
0.000913631
0.00113621
0.00125599
0.0013117
0.00132761
0.00131189
0.00125636
0.00113666
0.000914149
0.000779221
0.00095746
0.00105456
0.00109976
0.00111265
0.00109992
0.00105487
0.000957853
0.000779698
)
;
    }
    upperWall
    {
        type            nutkWallFunction;
        Cmu             0.09;
        kappa           0.41;
        E               9.8;
        value           nonuniform List<scalar> 
162
(
0.00165828
0.00165906
0.000876414
0.00108375
0.000359621
0.000356183
0.00017976
0.00018093
0.000177876
0.000176663
0.00018146
0.000180396
0.000184046
0.000182917
0.000183895
0.000182872
0.000184088
0.000183042
0.00263965
0.00267549
0.00151895
0.00130311
0.000408074
0.000487991
0.000242346
0.000237144
0.000242023
0.000241705
0.000259496
0.000258797
0.000263909
0.000263257
0.000269481
0.000268459
0.000269463
0.000268518
0.00313166
0.00313344
0.00174904
0.00177106
0.000620975
0.000610035
0.000310268
0.000306969
0.000318328
0.000312832
0.000335943
0.000339613
0.000345686
0.000341662
0.000347588
0.000348395
0.000348693
0.000347989
0.0033534
0.00335479
0.00204416
0.00204482
0.000867619
0.000872413
0.000423552
0.000422028
0.000391574
0.000390556
0.000406671
0.000407261
0.000421051
0.000420279
0.000423617
0.000423171
0.000425305
0.000424819
0.00345335
0.00345457
0.00224071
0.00224527
0.00117643
0.00117861
0.000607424
0.000608547
0.000500389
0.000500286
0.000495792
0.000495447
0.000500358
0.000500103
0.000501234
0.000500903
0.00050129
0.000501014
0.00343138
0.00343346
0.00235024
0.00235244
0.00146746
0.00146941
0.000943266
0.000944186
0.000728708
0.000728824
0.000652495
0.000652556
0.000622076
0.000621931
0.000604127
0.000603954
0.00058703
0.000586888
0.00334699
0.00334249
0.00235644
0.00235909
0.00167441
0.00167617
0.00126809
0.00126929
0.00103515
0.00103588
0.000908535
0.000908882
0.000828004
0.000828142
0.000782987
0.000783091
0.000713271
0.000713392
0.00311256
0.00312565
0.0022779
0.00227816
0.00178686
0.00178781
0.00148457
0.00148539
0.0012757
0.00127637
0.00112362
0.00112419
0.000995926
0.000996408
0.000913843
0.000914279
0.000795227
0.000795624
0.00240506
0.00239689
0.00206803
0.0020649
0.00173868
0.0017378
0.00149582
0.00149583
0.00130144
0.00130177
0.00114651
0.00114697
0.00100798
0.00100846
0.000913631
0.000914149
0.000779221
0.000779698
)
;
    }
}


// ************************************************************************* //
