/*--------------------------------*- C++ -*----------------------------------*\
  =========                 |
  \\      /  F ield         | OpenFOAM: The Open Source CFD Toolbox
   \\    /   O peration     | Website:  https://openfoam.org
    \\  /    A nd           | Version:  11
     \\/     M anipulation  |
\*---------------------------------------------------------------------------*/
FoamFile
{
    format      ascii;
    class       volScalarField;
    location    "400";
    object      p;
}
// * * * * * * * * * * * * * * * * * * * * * * * * * * * * * * * * * * * * * //

dimensions      [0 2 -2 0 0 0 0];

internalField   nonuniform List<scalar> 
729
(
2.92227
3.53739
3.11234
2.11597
1.13121
0.256157
-0.412149
-1.32225
2.35364
0.294856
0.207136
0.219095
0.0793404
-0.0984004
-0.189077
-0.070453
0.185107
1.39153
0.185227
0.201307
0.224937
0.153841
0.00143575
-0.122275
-0.0899239
0.0743391
0.424316
0.136223
0.13757
0.107418
0.017827
-0.120202
-0.231995
-0.238466
-0.189989
-0.0398751
0.101936
0.0774656
0.0149763
-0.0819082
-0.197778
-0.281651
-0.294165
-0.257224
-0.149166
0.0581559
0.0215396
-0.0448281
-0.133993
-0.225737
-0.280808
-0.287242
-0.231807
-0.148173
0.0270936
-0.00666932
-0.0609566
-0.130518
-0.196042
-0.230183
-0.232629
-0.179361
-0.129108
0.00663875
-0.0133121
-0.0441782
-0.0835725
-0.120076
-0.14302
-0.144881
-0.101938
-0.0783102
-0.0038793
-0.00709415
-0.0117353
-0.0179154
-0.0241367
-0.0368257
-0.0342416
-0.0306056
-0.0508717
3.67711
4.80084
4.12385
2.60669
1.23524
-0.11946
-1.77095
-4.36516
2.27731
-0.0998976
-0.180226
-0.243626
-0.30792
-0.323411
-0.264656
0.0309799
0.484756
3.0949
0.180937
0.198728
0.201948
0.129446
0.0144453
-0.0712995
-0.00520328
0.19553
1.19189
0.108526
0.102424
0.066208
-0.0235201
-0.145702
-0.238415
-0.256634
-0.345865
-0.0840836
0.0775568
0.0364416
-0.0302609
-0.120563
-0.222249
-0.296527
-0.32427
-0.435779
-0.317698
0.032028
-0.0179645
-0.0824953
-0.161175
-0.236884
-0.287711
-0.306581
-0.374039
-0.257059
0.00729688
-0.035673
-0.0859232
-0.145569
-0.199172
-0.232687
-0.246526
-0.292484
-0.206399
-0.00422277
-0.0286549
-0.0568614
-0.0905074
-0.121789
-0.1432
-0.152801
-0.18469
-0.13372
-0.0056954
-0.00952853
-0.0137341
-0.0194062
-0.026201
-0.0349211
-0.0396975
-0.0742986
-0.0878132
4.54393
6.21542
5.53784
3.59869
1.81987
-0.0310459
-2.76348
-6.65918
1.61383
-0.196189
-0.313234
-0.551875
-0.645979
-0.5664
-0.371057
0.117565
0.935465
4.37511
0.1425
0.155446
0.125822
0.0417257
-0.0575118
-0.101188
0.0837249
0.480829
1.94466
0.0471667
0.044736
0.00586845
-0.0843812
-0.198628
-0.280181
-0.271099
-0.370575
-0.0149737
0.0380306
-0.00116096
-0.0603376
-0.144954
-0.242881
-0.318682
-0.345355
-0.482748
-0.368399
0.00282617
-0.0453121
-0.100704
-0.169645
-0.237767
-0.289504
-0.310298
-0.388644
-0.257197
-0.0118538
-0.0530187
-0.0963499
-0.148354
-0.194116
-0.22554
-0.240173
-0.293753
-0.193587
-0.0143835
-0.0378969
-0.0621902
-0.0915738
-0.116762
-0.132876
-0.139967
-0.177897
-0.124765
-0.00738104
-0.0109479
-0.0141229
-0.0191165
-0.0241358
-0.0283465
-0.0320888
-0.0705424
-0.088949
5.02289
6.86128
6.22007
4.11249
2.1299
-0.00659994
-3.32375
-7.67746
1.10187
-0.201205
-0.41636
-0.728464
-0.815714
-0.687723
-0.430927
0.155445
1.22163
4.95906
0.102792
0.109027
0.0482915
-0.0492885
-0.137373
-0.140423
0.147134
0.714169
2.43211
0.00686666
0.00619814
-0.0400435
-0.135832
-0.24596
-0.311604
-0.26273
-0.329239
0.0877281
0.00904851
-0.0290885
-0.086011
-0.169127
-0.264685
-0.336375
-0.349865
-0.48113
-0.380926
-0.0178247
-0.0649985
-0.115615
-0.178511
-0.241788
-0.292005
-0.309748
-0.382234
-0.259269
-0.0251521
-0.06523
-0.104514
-0.150934
-0.190793
-0.219627
-0.23518
-0.288096
-0.193213
-0.021353
-0.0441674
-0.066023
-0.0919991
-0.112465
-0.124382
-0.13237
-0.173693
-0.129549
-0.00871251
-0.0122818
-0.0148813
-0.0191199
-0.0227574
-0.0241945
-0.0291071
-0.0724341
-0.0973844
5.15915
7.03723
6.41604
4.26192
2.21737
-0.00830146
-3.49889
-7.95504
0.923305
-0.197718
-0.451394
-0.781076
-0.862959
-0.721603
-0.44829
0.166873
1.30775
5.11299
0.0868105
0.0904419
0.0209479
-0.0791631
-0.162407
-0.151268
0.171235
0.795701
2.59622
-0.00637615
-0.00708881
-0.0560053
-0.153595
-0.261816
-0.320818
-0.256166
-0.307274
0.128469
-0.00123396
-0.0393889
-0.0955556
-0.178122
-0.27278
-0.342224
-0.349769
-0.476701
-0.384764
-0.0250982
-0.0718928
-0.120967
-0.18186
-0.243616
-0.292969
-0.308961
-0.377263
-0.260678
-0.0298235
-0.0694616
-0.107372
-0.151795
-0.18966
-0.217468
-0.232874
-0.283262
-0.191984
-0.0237306
-0.0462805
-0.0672793
-0.0919814
-0.110776
-0.121213
-0.129105
-0.16953
-0.129135
-0.00908613
-0.0126563
-0.0150377
-0.0189942
-0.0221152
-0.0225533
-0.0275353
-0.0713002
-0.0982349
5.01809
6.8595
6.21907
4.1121
2.12967
-0.00690987
-3.32445
-7.67768
1.10348
-0.200038
-0.412836
-0.728445
-0.816528
-0.688079
-0.430838
0.156003
1.22277
4.96131
0.100747
0.106367
0.0469442
-0.0490502
-0.137061
-0.140153
0.147696
0.715063
2.43375
0.00784165
0.00644377
-0.0403657
-0.135341
-0.245449
-0.311223
-0.2623
-0.328812
0.0884143
0.0096139
-0.0295865
-0.0860314
-0.168819
-0.264352
-0.336046
-0.349526
-0.480831
-0.380619
-0.0176192
-0.0650336
-0.115592
-0.178258
-0.2415
-0.291728
-0.309484
-0.381989
-0.259061
-0.0249532
-0.0650874
-0.104369
-0.150735
-0.190586
-0.219434
-0.235003
-0.287933
-0.193089
-0.0212189
-0.0440321
-0.0659058
-0.0918801
-0.112345
-0.124274
-0.132275
-0.173609
-0.129497
-0.00864486
-0.0122098
-0.0148226
-0.0190728
-0.0227229
-0.0241664
-0.0290835
-0.0724179
-0.0973865
4.53179
6.20897
5.53495
3.59756
1.81928
-0.0316207
-2.76472
-6.6596
1.61782
-0.193512
-0.317558
-0.557241
-0.64909
-0.567919
-0.371435
0.118395
0.937572
4.37948
0.140245
0.15221
0.123583
0.0408216
-0.05781
-0.100983
0.0845802
0.482272
1.9474
0.0458014
0.0440014
0.00552256
-0.0839977
-0.198012
-0.279522
-0.27038
-0.369929
-0.0137789
0.0374853
-0.00141815
-0.0603076
-0.144444
-0.242224
-0.318032
-0.344752
-0.482279
-0.367819
0.00302558
-0.0451441
-0.100445
-0.169151
-0.237208
-0.288974
-0.309824
-0.388264
-0.256823
-0.0114582
-0.0526349
-0.0960197
-0.147979
-0.19373
-0.225189
-0.239865
-0.293515
-0.193377
-0.0140845
-0.0375831
-0.0619381
-0.0913386
-0.116537
-0.132685
-0.139811
-0.177788
-0.12468
-0.00724738
-0.0107953
-0.014003
-0.0190216
-0.0240676
-0.0282965
-0.0320524
-0.0705278
-0.0889554
3.65253
4.79184
4.12301
2.60792
1.23691
-0.118514
-1.77143
-4.36431
2.28479
-0.0974584
-0.19961
-0.25765
-0.313783
-0.32586
-0.265442
0.0320016
0.487547
3.10075
0.178253
0.190229
0.196949
0.12768
0.0140004
-0.0710158
-0.00416502
0.197254
1.19497
0.106512
0.100199
0.0650921
-0.0230932
-0.144731
-0.23738
-0.25569
-0.345056
-0.0827266
0.0771358
0.0358965
-0.0304057
-0.119882
-0.221275
-0.295589
-0.323496
-0.435232
-0.316975
0.0326603
-0.0175753
-0.0821608
-0.160547
-0.236161
-0.287038
-0.306001
-0.373642
-0.256622
0.00802082
-0.0349809
-0.0854393
-0.145087
-0.198707
-0.23229
-0.246181
-0.292278
-0.206197
-0.0037219
-0.0281306
-0.056475
-0.0901968
-0.121519
-0.143003
-0.152654
-0.184635
-0.133667
-0.00549146
-0.0093071
-0.0135542
-0.0192742
-0.0261151
-0.0348765
-0.0396732
-0.0743113
-0.0878501
2.85208
3.52226
3.12061
2.12419
1.13985
0.262912
-0.407208
-1.3167
2.3633
0.287266
0.18814
0.205183
0.0771621
-0.0983606
-0.18802
-0.0678115
0.189093
1.39744
0.187189
0.192354
0.217469
0.15177
0.00141033
-0.121383
-0.088315
0.0764207
0.426885
0.135428
0.135612
0.105522
0.0180084
-0.119222
-0.230885
-0.237409
-0.189142
-0.0386252
0.101881
0.0773844
0.0147372
-0.0813589
-0.196829
-0.28073
-0.293398
-0.256762
-0.148319
0.0588087
0.0225284
-0.0442242
-0.133273
-0.224985
-0.280176
-0.286717
-0.231544
-0.147628
0.0279005
-0.00561592
-0.0602159
-0.12988
-0.195571
-0.229854
-0.232397
-0.179304
-0.128854
0.00721126
-0.0126082
-0.0436558
-0.0831751
-0.119846
-0.142897
-0.144864
-0.102008
-0.0782232
-0.0036504
-0.00684027
-0.0115489
-0.0177816
-0.0240937
-0.0368222
-0.0342856
-0.0306532
-0.0508964
)
;

boundaryField
{
    inlet
    {
        type            zeroGradient;
    }
    outlet
    {
        type            fixedValue;
        value           uniform 0;
    }
    lowerWall
    {
        type            zeroGradient;
    }
    upperWall
    {
        type            zeroGradient;
    }
}


// ************************************************************************* //
