/*--------------------------------*- C++ -*----------------------------------*\
  =========                 |
  \\      /  F ield         | OpenFOAM: The Open Source CFD Toolbox
   \\    /   O peration     | Website:  https://openfoam.org
    \\  /    A nd           | Version:  11
     \\/     M anipulation  |
\*---------------------------------------------------------------------------*/
FoamFile
{
    format      ascii;
    class       surfaceScalarField;
    location    "400";
    object      phi;
}
// * * * * * * * * * * * * * * * * * * * * * * * * * * * * * * * * * * * * * //

dimensions      [0 3 -1 0 0 0 0];

internalField   nonuniform List<scalar> 
1944
(
0.00824918
-0.00197714
-0.00636747
0.0119596
0.00255345
-0.00629236
0.0170241
0.000555267
-0.00564909
0.020439
0.000790577
-0.00421552
0.022773
0.000346056
-0.00268407
0.0240106
-0.000478869
-0.000759403
0.0232327
-0.00181604
0.00259582
0.019659
-0.00307262
0.00664749
0.0157283
0.00393314
-0.0025464
-0.00361569
0.0041385
0.000800505
-0.00430709
0.0034711
0.00447598
-0.00516725
0.00202792
0.00799402
-0.0040564
0.00131992
0.0106171
-0.0031018
0.000821017
0.0115992
-0.00207838
0.000616893
0.0098649
-0.000824768
0.000743584
0.00339338
0.00270815
0.000692932
0.0195086
-0.00038521
-0.000641197
-0.0031576
0.000147054
0.00149662
-0.00765888
0.00119887
0.00322492
-0.00853585
0.00163159
0.00501697
-0.00759431
0.00174032
0.0061689
-0.00569225
0.00143605
0.00610224
-0.00294789
0.000935201
0.00400749
0.00100811
0.000262084
-0.000566507
0.00805945
-0.000776154
0.0210818
-0.00213887
0.000922885
-0.00507098
0.000983986
0.00170683
-0.00956562
0.00111942
0.00261667
-0.0104292
0.000981563
0.00350346
-0.00945507
0.000972177
0.00387091
-0.00696412
0.000902946
0.00330217
-0.003109
0.000728968
0.00147668
0.00250504
0.000328412
-0.00180057
0.0118484
-0.000511266
0.021243
-0.00196143
0.000953233
-0.00664208
0.000616966
0.00148886
-0.0108141
0.000712884
0.00198881
-0.0115553
0.000626316
0.00243602
-0.0103729
0.000470638
0.0024851
-0.00735941
0.00034566
0.00179226
-0.00276587
0.000349226
4.05505e-05
0.00397852
0.000278055
-0.00223048
0.0143857
-0.000266064
0.0205566
-0.00154405
0.000731524
-0.0078497
0.00047505
0.00101187
-0.011596
0.000501286
0.00125573
-0.0121935
0.000394739
0.00143188
-0.0107657
0.000216948
0.0013024
-0.00724644
1.64805e-05
0.000594292
-0.0020751
1.70618e-05
-0.00104176
0.00551229
0.000102231
-0.00237903
0.0159148
-0.00019179
0.0194332
-0.00125564
0.000430959
-0.00856968
0.000287249
0.000533837
-0.01199
0.000290663
0.000626002
-0.0124888
0.000203277
0.000645289
-0.0108421
5.72521e-05
0.000410124
-0.00687544
-0.0001358
-0.000335545
-0.00115711
-0.000172365
-0.00174178
0.00696185
-4.32822e-05
-0.00237305
0.0167263
-0.000180119
0.0180831
-0.00102301
0.000183177
-0.008913
0.00015877
0.000179642
-0.0121366
0.00014965
0.000169392
-0.0125606
8.18852e-05
9.20851e-05
-0.0107425
-2.2206e-05
-0.000181392
-0.0064375
-0.000164424
-0.00100798
-5.41346e-05
-0.000276361
-0.00217972
0.00831464
-0.000180999
-0.00229707
0.017073
-0.000229312
0.0166579
-0.000871896
5.35091e-05
8.88742e-05
1.77304e-05
7.11545e-05
-4.93535e-05
2.09669e-05
-0.000189372
-5.0704e-05
-0.000540456
-0.00014676
-0.00147529
-0.000293231
-0.00219545
-0.000272224
-0.0019205
-0.000321559
-0.000688488
0.00492085
-0.0065797
-0.00472979
0.0112517
-0.00807016
-0.00456895
0.0155147
-0.00566328
-0.00425672
0.0185054
-0.00385903
-0.00335246
0.0208841
-0.00289841
-0.00216669
0.0231192
-0.00239464
-0.000600187
0.0255628
-0.00187996
0.00203273
0.0253382
0.00215054
0.00472373
0.0244648
0.00480871
0.000973073
-0.00600075
0.00259262
0.00350809
-0.00873425
0.0015966
0.00711514
-0.00797546
0.000728207
0.0103209
-0.00610624
0.000357714
0.0124058
-0.00438947
0.000225545
0.0129636
-0.00267816
0.000342149
0.0111945
-0.000154445
0.000787818
0.0066318
0.00626892
0.00113882
0.0287189
0.00199373
0.000868015
-0.00786243
0.00115843
0.00292907
-0.0113449
0.00175051
0.00478325
-0.0101791
0.00197923
0.00660249
-0.00793444
0.00174729
0.0076479
-0.00530723
0.00130716
0.00732005
-0.00222255
0.000807014
0.00505817
0.00211562
0.00025416
0.0011483
0.00986057
-0.000457136
0.0282811
-0.000552273
0.00117129
-0.00919995
0.00115834
0.00189773
-0.0120556
0.001107
0.00285796
-0.0112071
0.00105009
0.00383831
-0.00898546
0.00104248
0.00430365
-0.00577155
0.000901391
0.00386206
-0.00166678
0.000614445
0.00229978
0.00385186
0.000154406
-0.000247049
0.012408
-0.000511732
0.0271969
-0.00112422
0.00111022
-0.0103729
0.00068369
0.00165803
-0.0125698
0.00068145
0.00211384
-0.011576
0.000540846
0.00248408
-0.00930797
0.000423458
0.00248249
-0.00576473
0.00034044
0.00194454
-0.00106294
0.000283108
0.000832075
0.00515421
8.7987e-05
-0.000803192
0.0141381
-0.000361009
0.0258324
-0.000982858
0.000799532
-0.0111433
0.000447045
0.00106084
-0.0127328
0.000404124
0.00128748
-0.0116874
0.000280502
0.00141364
-0.0093415
0.0001249
0.00125294
-0.00556847
-1.89058e-05
0.000711797
-0.00047019
-3.46383e-05
-0.000172501
0.00619054
-4.99833e-05
-0.00120192
0.0152785
-0.000302984
0.0242063
-0.000831621
0.000472399
-0.0115771
0.000248483
0.000560494
-0.0127401
0.000210148
0.000642419
-0.0116834
0.000117726
0.000623909
-0.00924992
-1.54329e-05
0.000388334
-0.00529257
-0.000175931
-0.000125025
0.000101266
-0.000230485
-0.000849353
0.00704846
-0.000177006
-0.00141255
0.0159515
-0.000290101
0.022483
-0.000712412
0.000213643
-0.0117647
0.000132493
0.000213656
-0.0126927
0.000102277
0.000195816
-0.0116173
3.38916e-05
9.11324e-05
-0.00910168
-6.5514e-05
-0.000182148
-0.00497636
-0.000207234
-0.000696483
0.000664204
-0.000324986
-0.00131219
0.00776508
-0.000281993
-0.00150595
0.0162236
-0.000307758
0.0207226
-0.000617561
7.68252e-05
8.27498e-05
5.53593e-05
5.80085e-05
-1.74509e-05
3.33157e-06
-0.00017727
-7.30119e-05
-0.000487297
-0.000176105
-0.0010057
-0.000298647
-0.00144238
-0.000309202
-0.00131802
-0.000312119
-0.000481307
0.00448754
-0.00653165
-0.0026489
0.0116918
-0.00918536
-0.00258467
0.0158669
-0.00600324
-0.00243072
0.0185815
-0.00410747
-0.0019619
0.0208304
-0.00314129
-0.00127561
0.0232211
-0.0026641
-0.000327269
0.0261702
-0.00207419
0.00115835
0.0250367
0.00324602
0.00261268
0.0266614
0.00318518
0.00323273
-0.00847497
0.00132635
0.00495536
-0.0100766
0.000769265
0.00811249
-0.00866895
0.000236485
0.0109099
-0.00657369
2.54313e-05
0.0126535
-0.00466985
9.65861e-06
0.0128832
-0.00271499
0.000163082
0.0107499
0.000326164
0.000521159
0.0060798
0.00811873
0.000937185
0.0326112
0.00212437
0.00141508
-0.00980612
0.001087
0.00356854
-0.0117982
0.00132347
0.00545483
-0.0098266
0.00125184
0.00707278
-0.00745253
0.00100797
0.00784712
-0.00485578
0.000718321
0.00718413
-0.00168075
0.000435598
0.00453349
0.00307263
0.000158503
0.000373878
0.0119136
-9.19287e-05
0.0320314
0.000401671
0.00108685
-0.0104632
0.000737484
0.00182938
-0.0121532
0.000723738
0.00289435
-0.0105784
0.000738953
0.00391222
-0.00814701
0.000719593
0.00430643
-0.00492953
0.000580861
0.00369059
-0.000804957
0.000354369
0.00189611
0.00496958
5.19244e-05
-0.000763803
0.0143304
-0.000268582
0.0303675
-0.000224157
0.00105707
-0.0112973
0.00046566
0.00158677
-0.0124403
0.000441711
0.00205556
-0.0108693
0.000364677
0.00240385
-0.00837495
0.000303865
0.00234975
-0.00478085
0.000246024
0.00172375
-5.84311e-05
0.000162531
0.000500288
0.00628681
-5.89824e-06
-0.00108939
0.0157998
-0.000240902
0.0285683
-0.000273172
0.000761933
-0.0118997
0.000289556
0.00100666
-0.0125337
0.000254196
0.00123594
-0.0109926
0.00017556
0.00132895
-0.00841788
7.54078e-05
0.00110711
-0.00456709
-1.05912e-05
0.000493296
0.000562187
-4.1445e-05
-0.000442579
0.0072644
-9.18304e-05
-0.00140474
0.0166954
-0.000236675
0.0265942
-0.000262336
0.000452428
-0.0122639
0.000160882
0.000535301
-0.0125368
0.000130879
0.000605828
-0.0110116
6.65923e-05
0.000548139
-0.008348
-2.72338e-05
0.000256024
-0.0043167
-0.000134022
-0.000310137
0.00107806
-0.000180198
-0.00105288
0.00800614
-0.00017612
-0.00156273
0.0171625
-0.000247541
0.0245786
-0.000259675
0.000205514
-0.0124213
8.42143e-05
0.000202087
-0.0124926
6.15858e-05
0.000173721
-0.0109613
1.21809e-05
3.16376e-05
-0.0082094
-6.18792e-05
-0.000291864
-0.00403712
-0.000163251
-0.000831654
0.00153613
-0.000243286
-0.00144393
0.00857815
-0.000241824
-0.00159475
0.0172702
-0.000264685
0.0226174
-0.000251166
7.43955e-05
5.48557e-05
5.19277e-05
3.46076e-05
-3.18539e-05
-6.32084e-06
-0.000219557
-6.49499e-05
-0.000557714
-0.00014348
-0.00105657
-0.000224632
-0.00149302
-0.00024779
-0.00135096
-0.000251975
-0.000215644
0.00445913
-0.00630866
-0.000799072
0.0120067
-0.00931563
-0.000815523
0.0161917
-0.0058434
-0.000772367
0.0188186
-0.00396011
-0.00062938
0.0210252
-0.00307499
-0.000407976
0.0234824
-0.0026892
-9.56791e-05
0.0263912
-0.00212907
0.00037874
0.0246229
0.00354556
0.000835882
0.0267326
0.00107611
0.0040862
-0.00946345
0.000405526
0.00558937
-0.0102929
0.000245489
0.00858613
-0.0086693
6.59767e-05
0.0111969
-0.00653835
-7.48493e-06
0.0127529
-0.00461407
-7.65939e-06
0.0127697
-0.00259611
5.28575e-05
0.0103375
0.000641772
0.000182665
0.00547055
0.00899677
0.000353283
0.0334851
0.000842729
0.00163868
-0.0104173
0.000415005
0.00397834
-0.0117883
0.000482914
0.00583958
-0.00969918
0.000421592
0.00728935
-0.0073033
0.000323329
0.00783894
-0.0046707
0.000225214
0.00690333
-0.00136145
0.000136393
0.00393324
0.00371401
5.64026e-05
-0.000447024
0.0132754
9.94145e-06
0.0331729
0.00026691
0.00104891
-0.0109467
0.000224668
0.00187326
-0.0121392
0.000253573
0.00298397
-0.0103341
0.000264638
0.0039526
-0.00780103
0.000249131
0.00420612
-0.00453767
0.000194358
0.00337866
-0.000292222
0.000112533
0.0013262
0.00580636
1.20435e-05
-0.00148108
0.0158879
-7.3786e-05
0.0314439
2.37908e-05
0.00102602
-0.0116578
0.000153673
0.00154315
-0.0123609
0.000147962
0.00199755
-0.01055
0.000127162
0.00230108
-0.00790832
0.000108121
0.00216375
-0.00423993
8.57588e-05
0.00139782
0.000586581
4.96444e-05
-6.78106e-06
0.00721657
-1.15429e-05
-0.00162907
0.0173465
-7.72048e-05
0.0295602
-1.8536e-05
0.000734497
-0.0121966
9.51023e-05
0.000962455
-0.0124184
8.45212e-05
0.00116937
-0.010639
5.8244e-05
0.00121209
-0.0078988
2.35241e-05
0.00090987
-0.00394241
-5.74577e-06
0.00018587
0.00128939
-2.02409e-05
-0.000879118
0.00823193
-4.22408e-05
-0.00183029
0.0181442
-8.33061e-05
0.0274991
-3.1579e-05
0.000433145
-0.0125224
5.34228e-05
0.000501608
-0.0123988
4.29177e-05
0.000548518
-0.0106391
1.99589e-05
0.000445189
-0.0078082
-1.43095e-05
8.38413e-05
-0.00366288
-5.20913e-05
-0.000571454
0.00183437
-6.98618e-05
-0.00140895
0.00896578
-7.2513e-05
-0.00190409
0.0184833
-9.16134e-05
0.0253796
-4.43975e-05
0.000193387
-0.0126589
2.71038e-05
0.000179722
-0.0123426
1.9068e-05
0.000131535
-0.0105795
8.60795e-07
-4.97115e-05
-0.00766177
-2.69612e-05
-0.000433323
-0.00337865
-6.38082e-05
-0.00103853
0.0022886
-9.22934e-05
-0.00171796
0.00949862
-9.5257e-05
-0.00185695
0.0184564
-9.87737e-05
0.023322
-5.04902e-05
6.75997e-05
1.99321e-05
3.68011e-05
1.14712e-05
-6.31171e-05
-4.41018e-06
-0.000280879
-2.69727e-05
-0.000663887
-5.65209e-05
-0.00119893
-8.5785e-05
-0.00167884
-9.54606e-05
-0.00153971
-9.13673e-05
-4.54228e-05
0.00445336
-0.00620514
0.000986396
0.0121202
-0.00935984
0.000877247
0.016313
-0.00578767
0.000821534
0.0189182
-0.00389951
0.000664566
0.021114
-0.00303978
0.000435853
0.0235838
-0.00268473
0.000119208
0.0264528
-0.00213209
-0.000358216
0.0244766
0.00363246
-0.000820133
0.0266249
-0.00107198
0.00432921
-0.00974814
-0.00037735
0.00577202
-0.0103522
-0.000204295
0.0087303
-0.0086576
-2.32665e-05
0.0112885
-0.00650405
3.85189e-05
0.0127849
-0.004575
3.09266e-05
0.0127294
-0.00254205
-3.43551e-05
0.0101962
0.000751568
-0.00016772
0.00525853
0.00926562
-0.00034208
0.0335633
-0.000837014
0.00172888
-0.0105781
-0.000481375
0.00412283
-0.0118004
-0.000462367
0.00596179
-0.00968267
-0.00039302
0.00735128
-0.00726438
-0.000306144
0.00782177
-0.00460766
-0.000212688
0.00678884
-0.0012466
-0.000126157
0.00370543
0.00393947
-4.80597e-05
-0.000750803
0.0137358
-3.90693e-06
0.0333437
-0.000264265
0.00104873
-0.0110867
-0.000311246
0.00190098
-0.0121361
-0.000262794
0.00301873
-0.0102719
-0.000264256
0.00395911
-0.00770263
-0.000253029
0.0041548
-0.00441287
-0.000196132
0.00324443
-0.000111894
-0.000111789
0.00109337
0.00611225
-9.6527e-06
-0.00176021
0.0164391
7.6517e-05
0.0316298
-2.24694e-05
0.00101807
-0.0117606
-0.000189083
0.00152663
-0.0123302
-0.000166445
0.00197177
-0.0104517
-0.000138254
0.00225549
-0.00775909
-0.00011912
0.00208159
-0.00405869
-9.45074e-05
0.00125632
0.000818091
-5.50581e-05
-0.000220729
0.00756821
9.55307e-06
-0.00184809
0.0179118
7.73907e-05
0.0297441
1.89938e-05
0.000723213
-0.012279
-0.000109815
0.000944604
-0.012374
-9.32537e-05
0.00113945
-0.0105223
-6.61121e-05
0.00116018
-0.00772315
-3.31337e-05
0.000823174
-0.00372331
-4.08488e-06
5.13478e-05
0.00155737
1.23256e-05
-0.00106848
0.00860806
3.7725e-05
-0.00200873
0.0186871
8.16006e-05
0.0276725
3.12964e-05
0.000424918
-0.0125902
-6.05656e-05
0.000486846
-0.0123448
-4.84826e-05
0.000522919
-0.0105124
-2.60859e-05
0.000399752
-0.00762098
6.7021e-06
7.36673e-06
-0.00342644
4.34583e-05
-0.000689187
0.00212218
6.18837e-05
-0.00157082
0.00935016
6.69987e-05
-0.00205341
0.0189893
8.87324e-05
0.0255311
4.35333e-05
0.000188039
-0.0127194
-3.22886e-05
0.000169687
-0.0122838
-2.37814e-05
0.000112413
-0.010448
-6.3322e-06
-8.61255e-05
-0.00746991
2.04718e-05
-0.000496963
-0.00313602
5.6591e-05
-0.00113647
0.00258404
8.53544e-05
-0.00185111
0.00987977
8.97559e-05
-0.00197891
0.018923
9.53502e-05
0.0234524
4.92751e-05
6.37041e-05
-1.66281e-05
2.90641e-05
-1.12552e-05
-7.8311e-05
2.42045e-06
-0.000309633
2.32724e-05
-0.000713979
5.16616e-05
-0.00127311
8.02437e-05
-0.00177906
9.05799e-05
-0.0016357
8.78716e-05
4.40379e-05
0.00439572
-0.00639373
0.00302662
0.0119998
-0.00940973
0.00269595
0.0161893
-0.00586016
0.00248964
0.0188182
-0.00396225
0.00199647
0.0210256
-0.00307339
0.00130079
0.0234833
-0.00268731
0.00034831
0.0263913
-0.002127
-0.00113946
0.0246218
0.00354867
-0.00259944
0.0267357
-0.00318612
0.00414389
-0.0094876
-0.00142903
0.00559766
-0.0103569
-0.000713746
0.00858376
-0.00869427
-0.000176311
0.0111936
-0.00654307
8.81275e-06
0.0127512
-0.00461294
1.28464e-05
0.0127687
-0.00259344
-0.000145879
0.0103361
0.000645374
-0.00050749
0.00546887
0.009002
-0.000928181
0.0334907
-0.00212312
0.00167736
-0.0103465
-0.00131113
0.00400199
-0.0117917
-0.00136041
0.00584602
-0.00970628
-0.00122667
0.00728848
-0.00730297
-0.000988884
0.00783667
-0.00466911
-0.000704689
0.00690119
-0.00135853
-0.000425589
0.0039311
0.00371813
-0.000150739
-0.000449221
0.0132816
9.68023e-05
0.0331789
-0.00040185
0.00104955
-0.0108831
-0.000826275
0.00188515
-0.0121224
-0.000772065
0.00299347
-0.0103288
-0.000752872
0.00395434
-0.00779476
-0.000723093
0.00420496
-0.00453366
-0.00058245
0.00337699
-0.000288492
-0.000353931
0.00132428
0.00581097
-4.97851e-05
-0.00148314
0.0158948
0.000270767
0.0314497
0.000223604
0.00103747
-0.0116239
-0.000488066
0.00155041
-0.0123457
-0.000458384
0.00200028
-0.0105433
-0.000375026
0.00230155
-0.00790198
-0.000313975
0.0021632
-0.00423552
-0.000254563
0.00139676
0.000590818
-0.00016802
-8.29243e-06
0.00722165
3.89629e-06
-0.00163065
0.0173537
0.000240872
0.0295658
0.000272251
0.000736084
-0.0121703
-0.000301172
0.000965441
-0.0124055
-0.000264069
0.00117061
-0.0106317
-0.000183731
0.00121292
-0.00789365
-8.4175e-05
0.000909905
-0.00393833
1.55329e-06
0.000185299
0.00129373
3.39638e-05
-0.000880202
0.00823727
8.75937e-05
-0.00183142
0.0181515
0.000235016
0.0275046
0.000261046
0.00043523
-0.0125001
-0.000167476
0.000503808
-0.0123867
-0.00013676
0.000549976
-0.0106321
-7.24427e-05
0.000446281
-0.00780391
2.03753e-05
8.43081e-05
-0.00365932
0.000126295
-0.000571623
0.00183856
0.00017295
-0.00140965
0.00897116
0.00017113
-0.00190487
0.0184905
0.000244903
0.0253852
0.000258092
0.000194934
-0.0126389
-8.94329e-05
0.000181616
-0.0123315
-6.62396e-05
0.000133197
-0.0105729
-1.74486e-05
-4.8367e-05
-0.00765791
5.58761e-05
-0.000432488
-0.0033754
0.000156748
-0.00103845
0.00229278
0.000237091
-0.00171841
0.00950391
0.000236975
-0.00185752
0.0184633
0.000261616
0.0233275
0.000249446
6.84661e-05
-5.20166e-05
3.79498e-05
-3.45159e-05
-6.20363e-05
4.43507e-06
-0.000279978
6.15277e-05
-0.000663183
0.000139065
-0.00119882
0.000219657
-0.00167916
0.000243504
-0.00154015
0.000248826
0.000213953
0.00422298
-0.00628708
0.00511946
0.011653
-0.00949509
0.00478673
0.0158613
-0.0060189
0.00431514
0.0185844
-0.00410588
0.00337735
0.0208346
-0.00313434
0.00218344
0.023226
-0.00265888
0.000614048
0.0261715
-0.00206871
-0.00201732
0.0250367
0.00325263
-0.00471819
0.0266673
-0.00481782
0.00358654
-0.0082092
-0.00305749
0.00492105
-0.010177
-0.00135799
0.00808417
-0.00872397
-0.000629835
0.0108949
-0.00658655
-0.000316972
0.0126486
-0.00466739
-0.000206783
0.0128815
-0.00270925
-0.000328206
0.0107483
0.000333901
-0.000777123
0.00607825
0.00812852
-0.00113433
0.0326216
-0.00199975
0.00166151
-0.00964938
-0.00158199
0.00362563
-0.0117108
-0.00180606
0.00544675
-0.00984191
-0.00192813
0.00705972
-0.0074569
-0.00172798
0.0078392
-0.0048551
-0.00129436
0.00717939
-0.00167555
-0.000798572
0.00453031
0.00308043
-0.000247864
0.000371227
0.0119245
0.000459881
0.0320427
0.000548099
0.0011427
-0.0103765
-0.00127897
0.00187766
-0.0120851
-0.00114481
0.00290577
-0.0105635
-0.0010616
0.00391072
-0.00813781
-0.00104693
0.00430257
-0.00492438
-0.000904351
0.00368749
-0.000798562
-0.000615413
0.00189348
0.0049778
-0.000152934
-0.000766348
0.0143422
0.000512958
0.0303784
0.00112149
0.0010616
-0.0112263
-0.000704409
0.00160264
-0.0123998
-0.000688251
0.00206271
-0.0108531
-0.000548082
0.00240543
-0.00836397
-0.000431541
0.00234906
-0.0047743
-0.000348556
0.00172242
-5.12058e-05
-0.00028865
0.000498536
0.00629558
-8.99029e-05
-0.0010912
0.015812
0.000360761
0.0285789
0.000980572
0.000766709
-0.0118384
-0.000457021
0.00101348
-0.0125031
-0.000408849
0.00123927
-0.0109777
-0.000285986
0.00133133
-0.00840929
-0.000131577
0.00110802
-0.00456102
1.13905e-05
0.000493105
0.000569316
2.83481e-05
-0.000443514
0.00727335
4.64641e-05
-0.0014058
0.0167077
0.000301646
0.0266047
0.000829393
0.000456716
-0.012209
-0.000254562
0.00054046
-0.0125091
-0.000215396
0.000609357
-0.0109975
-0.000122155
0.0005509
-0.00834094
1.01045e-05
0.000257694
-0.00431159
0.000169929
-0.000309576
0.00108463
0.000224898
-0.00105315
0.0080149
0.000173173
-0.00156327
0.0171746
0.000288123
0.0245893
0.00071029
0.000208376
-0.0123708
-0.000136853
0.000206258
-0.0124674
-0.000106404
0.000177501
-0.0109479
-3.86751e-05
3.47701e-05
-0.00820305
6.05151e-05
-0.000289597
-0.00403264
0.000202087
-0.000830711
0.00154258
0.000320263
-0.00144387
0.00858658
0.000278469
-0.00159504
0.0172819
0.000305541
0.0226281
0.000615578
7.66252e-05
-8.10137e-05
5.45271e-05
-5.79913e-05
-2.94063e-05
-4.94042e-06
-0.000217466
7.01605e-05
-0.000555793
0.00017249
-0.00105574
0.000294659
-0.00149292
0.000306068
-0.00135117
0.000309757
0.00047964
0.00382159
-0.00457961
0.00614289
0.0111916
-0.00898591
0.006485
0.0155296
-0.00559852
0.00558644
0.0185307
-0.00384695
0.00422959
0.0209066
-0.00287814
0.00268381
0.0231389
-0.00238388
0.000763281
0.0255697
-0.00186629
-0.00258403
0.0253418
0.00216351
-0.006656
0.0244682
-0.00394619
0.00196184
-0.00473087
-0.00487167
0.00315495
-0.00926403
-0.00227405
0.00700251
-0.00812773
-0.00192835
0.0102837
-0.00615324
-0.00128009
0.0123975
-0.00439006
-0.00080334
0.0129629
-0.00267059
-0.000605397
0.0111969
-0.000140593
-0.000736813
0.00663358
0.00628258
-0.000691224
0.0287268
0.000374364
0.00174521
-0.0075329
-0.000671123
0.00296125
-0.0112668
-0.00103857
0.00475812
-0.0102194
-0.00162221
0.00657013
-0.00795447
-0.00172854
0.00763306
-0.0053102
-0.00143146
0.00731332
-0.00221608
-0.000930851
0.0050569
0.0021269
-0.000258104
0.00114829
0.00987376
0.000777272
0.0282899
0.00213299
0.00133049
-0.0090444
-0.00114741
0.0019748
-0.0119899
-0.00107854
0.00287837
-0.0111902
-0.000997087
0.00383612
-0.00898077
-0.000976794
0.00429881
-0.00576841
-0.000907072
0.00385924
-0.00165949
-0.000731162
0.00229926
0.00386232
-0.000327695
-0.000246662
0.012421
0.000511687
0.0272068
0.00195789
0.00112848
-0.0102434
-0.000646345
0.00167698
-0.0125179
-0.000716343
0.00212692
-0.0115553
-0.000636841
0.00248963
-0.00929946
-0.000477191
0.0024835
-0.00575996
-0.000350915
0.00194464
-0.00105542
-0.000353525
0.000832523
0.00516431
-0.000279498
-0.000802383
0.0141511
0.000265687
0.0258437
0.00154129
0.000811279
-0.0110299
-0.000484484
0.00106958
-0.0126814
-0.000506073
0.00129341
-0.0116682
-0.000398998
0.00141871
-0.00933446
-0.000222935
0.00125602
-0.0055646
-2.16787e-05
0.000713401
-0.000463294
-2.1157e-05
-0.000171157
0.0062
-0.000104598
-0.00120071
0.0152914
0.000190814
0.024219
0.00125336
0.000480266
-0.0114734
-0.000292677
0.000570313
-0.0126914
-0.000296748
0.000648777
-0.011664
-0.00020579
0.000629099
-0.00924384
-6.15071e-05
0.000392273
-0.00528996
0.000131818
-0.000122582
0.000107
0.000169391
-0.000847424
0.00705698
4.10142e-05
-0.00141115
0.0159644
0.000178897
0.0224969
0.00102123
0.000219053
-0.0116679
-0.000162162
0.000220881
-0.0126475
-0.000152804
0.000202561
-0.0115974
-8.74869e-05
9.68103e-05
-0.00909617
1.8271e-05
-0.000177481
-0.00497476
0.000161078
-0.000693658
0.0006697
0.000273703
-0.00131016
0.0077729
0.000179103
-0.00150471
0.0162365
0.000228035
0.0207372
0.000870534
8.00637e-05
-8.85104e-05
5.95998e-05
-7.12472e-05
-1.33052e-05
-2.18536e-05
-0.000173599
4.86999e-05
-0.000483297
0.000144179
-0.00100328
0.000290434
-0.00144084
0.000270453
-0.00131708
0.00032024
0.000687908
0.00328868
0.00295793
0.0126858
-0.00289648
0.017091
0.0012008
0.0205975
0.000730261
0.0228553
0.000428136
0.02408
-0.000462095
0.0232636
-0.00176902
0.0196671
-0.00306161
0.0157201
-0.00141711
-0.000570747
-0.000427289
-0.00615485
0.00422758
-0.00536267
0.00788179
-0.00419099
0.0106133
-0.00310073
0.0116079
-0.00205993
0.00989232
-0.000790289
0.00341555
0.00272308
0.0195097
0.00121681
-0.00252625
0.00161007
-0.00758825
0.00324935
-0.00861544
0.0049628
-0.00762546
0.00614355
-0.00570865
0.00609144
-0.00293653
0.00401451
0.00102931
-0.000555586
0.00807026
0.0210871
0.0011265
-0.00482996
0.00187694
-0.00942532
0.0026625
-0.0103993
0.00351156
-0.0094504
0.00386552
-0.00696819
0.0033003
-0.00310129
0.00148414
0.00251831
-0.00179138
0.0118576
0.0212536
0.000972191
-0.00645893
0.00153407
-0.0107084
0.00201471
-0.0115192
0.00245006
-0.0103636
0.00249086
-0.00735978
0.00179605
-0.00275956
4.83839e-05
0.00398676
-0.00222339
0.014395
0.0205715
0.000742666
-0.00768908
0.00103047
-0.0115045
0.00126997
-0.012159
0.00144281
-0.01076
0.00131071
-0.00724952
0.000600335
-0.00207027
-0.00103411
0.00551664
-0.00237365
0.0159254
0.0194512
0.00044015
-0.00842305
0.00054763
-0.0119096
0.000636898
-0.0124548
0.000654879
-0.0108399
0.000419085
-0.00688205
-0.000328662
-0.00115316
-0.00173486
0.0069639
-0.00236911
0.0167385
0.0181033
0.000189889
-0.00877555
0.000191281
-0.0120642
0.000179349
-0.0125307
0.000102251
-0.0107447
-0.000171474
-0.0064473
-0.00100078
-5.0106e-05
-0.00217398
0.0083162
-0.00229453
0.0170871
0.0166793
5.77457e-05
2.43222e-05
-4.28199e-05
-0.000183414
-0.000531672
-0.00146961
-0.00219175
-0.00191901
)
;

boundaryField
{
    inlet
    {
        type            calculated;
        value           uniform 0;
    }
    outlet
    {
        type            calculated;
        value           nonuniform List<scalar> 
81
(
-0.00905543
-0.0118354
-0.0124679
-0.0126916
-0.0127465
-0.0126721
-0.0124185
-0.0117405
-0.00892182
-0.012172
-0.0126581
-0.0124468
-0.0122887
-0.0122265
-0.0122778
-0.0124218
-0.0126138
-0.012102
-0.0125145
-0.0115268
-0.0108679
-0.0104815
-0.0103475
-0.010475
-0.0108546
-0.0115076
-0.0124854
-0.0105518
-0.00891954
-0.00802975
-0.00748198
-0.00728884
-0.00747824
-0.00802364
-0.00891443
-0.0105554
-0.00593966
-0.00463698
-0.00373158
-0.00308259
-0.00283986
-0.00307961
-0.00372774
-0.00463676
-0.00595486
0.00117395
0.001188
0.00196096
0.0026848
0.00297714
0.00268902
0.00196752
0.00119393
0.00117828
0.00930703
0.0082387
0.00895315
0.00982619
0.0101997
0.00983133
0.00896122
0.00824608
0.00930881
0.0171196
0.0160897
0.0170679
0.0181566
0.0186004
0.0181634
0.0170792
0.0161022
0.0171346
0.0154259
0.0191973
0.0210007
0.021612
0.0217273
0.0216174
0.0210112
0.0192119
0.0154482
)
;
    }
    lowerWall
    {
        type            calculated;
        value           uniform 0;
    }
    upperWall
    {
        type            calculated;
        value           uniform 0;
    }
}


// ************************************************************************* //
