/*--------------------------------*- C++ -*----------------------------------*\
  =========                 |
  \\      /  F ield         | OpenFOAM: The Open Source CFD Toolbox
   \\    /   O peration     | Website:  https://openfoam.org
    \\  /    A nd           | Version:  11
     \\/     M anipulation  |
\*---------------------------------------------------------------------------*/
FoamFile
{
    format      ascii;
    class       volScalarField::Internal;
    location    "400";
    object      tmp<kEpsilon:G>;
}
// * * * * * * * * * * * * * * * * * * * * * * * * * * * * * * * * * * * * * //

dimensions      [0 2 -3 0 0 0 0];

value           nonuniform List<scalar> 
729
(
4.3125
8.20926
10.7796
12.7491
14.7397
15.3178
15.1982
9.38147
10.501
0.383348
0.761565
0.796452
1.5757
2.58079
3.39092
3.49225
1.90191
3.9774
0.0118783
0.0754563
0.140174
0.302949
0.550616
0.796729
0.846565
0.905389
3.24966
0.00581345
0.0209535
0.0460104
0.0678883
0.137025
0.213811
0.28544
1.16766
2.50111
0.00841056
0.0279431
0.0509255
0.068972
0.092471
0.0972137
0.187293
1.10979
1.82444
0.0107951
0.0329474
0.0624922
0.0828633
0.0854983
0.0548661
0.191595
0.971642
1.32545
0.0122258
0.0373857
0.0657322
0.0863495
0.0819852
0.0301104
0.210709
0.809628
0.944321
0.0130118
0.0385742
0.0687008
0.0888164
0.0764058
0.0136408
0.229522
0.701857
0.717141
0.013329
0.0391484
0.0686265
0.0876585
0.0707197
0.0217422
0.227072
0.525538
0.457085
13.1384
860.815
1099.43
1251.23
1321.29
1304.43
1134.35
893.653
35.0452
0.615936
5.40211
4.7992
5.56996
6.02876
6.81862
7.42667
3.45
14.9808
0.0501155
0.476999
1.00095
1.18162
0.651343
0.159747
2.37522
12.7477
9.29709
0.0200879
0.0841476
0.0178093
0.0581936
0.0460344
0.247417
2.21312
9.16883
6.24279
0.0280673
0.0328595
0.0209761
0.073845
0.176878
0.611524
2.19922
5.43094
4.13559
0.03102
0.0158575
0.0206601
0.108303
0.31323
0.815477
2.07563
3.20066
2.78925
0.034357
0.00582949
0.0304341
0.159705
0.426612
0.946696
1.9279
1.94109
1.89967
0.0353977
0.00141125
0.0450952
0.214102
0.534312
1.04134
1.79096
1.27179
1.39524
0.0358785
0.000410246
0.0622071
0.268812
0.651419
1.14517
1.53499
0.682219
0.870875
15.3816
1008.58
1300.99
1532.72
1657.3
1657.17
1431.12
1095.29
47.6452
0.648254
7.8344
5.88359
6.28353
6.72672
8.07812
8.75798
5.30652
21.5329
0.0912271
0.694424
1.23694
1.25894
0.55599
0.351266
4.70058
20.0534
13.4331
0.035202
0.0147235
0.0283102
0.0699619
0.0602209
0.489942
3.8656
14.3124
8.98912
0.04444
0.0123678
0.0536445
0.0969836
0.239192
0.871418
3.33326
8.29981
5.85641
0.0480269
0.00358793
0.0483109
0.150443
0.404418
1.10186
2.94017
4.75257
3.8648
0.051362
0.00168315
0.0637882
0.213294
0.547608
1.2335
2.62375
2.85192
2.58999
0.0525731
0.00385552
0.0828838
0.282644
0.676019
1.33504
2.37926
1.8767
1.87626
0.053042
0.0081628
0.107354
0.352739
0.807166
1.43865
2.01018
1.03986
1.16439
16.4677
1057.47
1374.92
1646.1
1800.55
1810.51
1560.14
1174.21
52.1336
0.664542
8.31606
5.71181
6.36705
7.29391
9.43672
10.5568
5.53772
23.738
0.118447
0.944011
1.51659
1.33332
0.487244
0.537763
6.57151
23.6326
15.0943
0.0446814
0.0174487
0.0434431
0.0870244
0.0757667
0.738871
5.3376
16.4397
10.253
0.0533982
0.0132404
0.063849
0.108152
0.296585
1.14219
4.37972
9.32131
6.70207
0.0582846
0.00452396
0.0645314
0.178176
0.486232
1.36773
3.70689
5.2026
4.40703
0.0610424
0.00582462
0.0864675
0.255372
0.639807
1.47677
3.19965
3.0588
2.94077
0.0628463
0.0111378
0.109901
0.332843
0.775113
1.55937
2.8213
1.995
2.12018
0.0630959
0.0181718
0.138505
0.411328
0.911198
1.6385
2.31324
1.07962
1.30956
16.9533
1066.92
1393.94
1677.41
1841.32
1854.41
1597.19
1196.11
53.304
0.679357
8.43545
5.57297
6.32423
7.47655
9.95948
11.2809
5.45889
24.2076
0.127252
1.03832
1.61119
1.35233
0.460157
0.618538
7.28143
24.5083
15.4762
0.0483188
0.017911
0.0491386
0.0929163
0.0833641
0.841
5.89713
16.8714
10.5795
0.0563202
0.0144285
0.0665579
0.113549
0.321919
1.25482
4.77881
9.45891
6.93231
0.0617095
0.00562418
0.0714621
0.189663
0.520159
1.47634
3.99261
5.21242
4.55694
0.0643609
0.00806127
0.0948124
0.271068
0.675878
1.57443
3.40582
3.02963
3.03786
0.0661688
0.0144205
0.12001
0.35196
0.812461
1.64675
2.9727
1.96194
2.18726
0.0664097
0.0223013
0.149749
0.432708
0.949744
1.71368
2.40977
1.04474
1.34939
16.5307
1058.13
1374.09
1646.07
1800.74
1810.73
1560.35
1174.34
52.1422
0.665594
8.31462
5.64503
6.3515
7.29476
9.44192
10.5606
5.53938
23.7455
0.114413
0.868239
1.49969
1.32494
0.486115
0.538095
6.57551
23.6401
15.1002
0.0426041
0.00572139
0.0408136
0.0867424
0.0759193
0.740283
5.34248
16.445
10.2575
0.0531208
0.0139484
0.0621113
0.10805
0.296695
1.14345
4.38354
9.32399
6.70521
0.0579979
0.00446278
0.0638746
0.177788
0.486194
1.3686
3.70957
5.20374
4.40922
0.060836
0.00563849
0.0858809
0.254888
0.639674
1.47743
3.20155
3.05923
2.94231
0.0626281
0.0109113
0.10942
0.332239
0.774816
1.55982
2.82266
1.99517
2.12136
0.0628971
0.0178652
0.137856
0.410606
0.910962
1.63895
2.31412
1.07963
1.31033
15.0131
1020.5
1298.79
1533.09
1657.64
1657.45
1431.48
1095.32
47.6675
0.675717
8.32566
5.71807
6.29071
6.74286
8.09559
8.766
5.3061
21.5498
0.0928753
0.687564
1.22336
1.25016
0.557299
0.350637
4.70341
20.0634
13.4451
0.034159
0.0216566
0.0242319
0.0710408
0.0608389
0.492124
3.87216
14.3221
8.99749
0.0437722
0.0134066
0.0505318
0.0971777
0.239383
0.873921
3.33903
8.30576
5.86206
0.0478119
0.00372276
0.0469823
0.149607
0.404292
1.10335
2.94428
4.75575
3.86868
0.050628
0.00154903
0.0626601
0.212443
0.547406
1.23463
2.62679
2.85364
2.5927
0.052356
0.00350681
0.0818803
0.281489
0.675525
1.33583
2.38156
1.87778
1.87833
0.0526444
0.0076545
0.106069
0.351348
0.806793
1.43954
2.01184
1.04045
1.16577
11.427
903.833
1093.08
1251.96
1321.25
1304.2
1134.96
892.293
35.105
0.673793
6.67466
4.44011
5.69268
6.07355
6.85997
7.44471
3.44007
15.0098
0.0578076
0.5987
0.976921
1.17854
0.658197
0.15865
2.37287
12.7436
9.31293
0.0189903
0.0897537
0.0154155
0.0565979
0.0477074
0.249749
2.21684
9.17338
6.25245
0.0269431
0.035186
0.0191686
0.0731313
0.177848
0.614283
2.20378
5.43546
4.14172
0.0304853
0.0171975
0.0193325
0.107199
0.313067
0.817106
2.07896
3.20388
2.79342
0.0338188
0.00664624
0.0289085
0.158819
0.426719
0.94792
1.93055
1.94341
1.90261
0.0348904
0.00177139
0.0440287
0.212751
0.534053
1.04221
1.79307
1.27357
1.39751
0.0353769
0.000472133
0.0606142
0.267208
0.651378
1.14637
1.5367
0.683386
0.872436
2.92388
9.10365
10.6753
13.0181
14.8056
15.3919
15.2866
9.32036
10.6058
0.419042
0.522003
0.924126
1.51196
2.58769
3.39606
3.4992
1.90626
3.99931
0.0157504
0.0553338
0.155908
0.30179
0.551836
0.795572
0.847198
0.908874
3.25949
0.00524346
0.021446
0.0464133
0.068636
0.137513
0.214146
0.286821
1.17018
2.50647
0.00788078
0.0269774
0.0505582
0.0690214
0.0925294
0.0973145
0.188209
1.11152
1.82804
0.0104083
0.0327008
0.0597694
0.0826728
0.0855042
0.0548271
0.19198
0.973016
1.32818
0.0118675
0.0367586
0.0664354
0.0864248
0.0819554
0.0300473
0.210847
0.810818
0.946443
0.0126578
0.0380658
0.0677184
0.0885158
0.0764166
0.0134576
0.229584
0.702987
0.718937
0.0129798
0.0386434
0.0681757
0.0874808
0.0708104
0.0216505
0.22714
0.526457
0.458384
)
;


// ************************************************************************* //
