/*--------------------------------*- C++ -*----------------------------------*\
  =========                 |
  \\      /  F ield         | OpenFOAM: The Open Source CFD Toolbox
   \\    /   O peration     | Website:  https://openfoam.org
    \\  /    A nd           | Version:  11
     \\/     M anipulation  |
\*---------------------------------------------------------------------------*/
FoamFile
{
    format      ascii;
    class       volVectorField;
    location    "400";
    object      U;
}
// * * * * * * * * * * * * * * * * * * * * * * * * * * * * * * * * * * * * * //

dimensions      [0 1 -1 0 0 0 0];

internalField   nonuniform List<vector> 
729
(
(1.09598 -2.79686 -0.544471)
(0.840185 -1.90403 -0.562502)
(1.46453 -1.28711 -0.559114)
(1.88502 -0.74254 -0.44712)
(2.19181 -0.422735 -0.312326)
(2.35496 -0.23607 -0.150251)
(2.48936 -0.135158 0.131265)
(1.69786 -0.0156495 0.444249)
(3.22768 1.24434 0.33308)
(-0.602891 0.337755 0.154838)
(0.0406516 0.846404 0.323721)
(0.205015 0.418515 0.168081)
(0.633396 0.321437 0.136117)
(0.951548 0.176228 0.0973097)
(1.15602 0.0288314 0.072171)
(1.17371 -0.144232 0.0730933)
(0.666357 -0.190371 0.0540316)
(0.34629 1.75583 0.0447977)
(-0.198012 -0.0923035 -0.0905662)
(0.116858 -0.672913 0.0821143)
(0.217813 -0.777852 0.102283)
(0.40948 -0.704945 0.141136)
(0.566816 -0.544553 0.139176)
(0.639027 -0.333738 0.106933)
(0.584481 -0.041611 0.0404463)
(0.209969 0.500408 -0.0821128)
(-0.233086 2.07115 -0.191893)
(0.047357 -0.401664 0.0688671)
(0.144333 -0.865445 0.103679)
(0.212279 -0.964808 0.0775104)
(0.304261 -0.88062 0.0738022)
(0.374007 -0.658347 0.0770469)
(0.374375 -0.313919 0.077447)
(0.301137 0.182457 0.0391835)
(-0.00782617 1.03898 -0.0855831)
(-0.310129 2.16707 -0.236661)
(0.0610767 -0.609664 0.0435827)
(0.124967 -1.04067 0.0508004)
(0.172213 -1.11745 0.0433433)
(0.220861 -1.01167 0.0286524)
(0.24975 -0.737663 0.021382)
(0.228107 -0.310253 0.0314953)
(0.141224 0.324616 0.0277603)
(-0.127924 1.35232 -0.070351)
(-0.287864 2.1171 -0.209031)
(0.049051 -0.736513 0.0339411)
(0.0876728 -1.13123 0.0356674)
(0.111966 -1.19622 0.0267038)
(0.133452 -1.06522 0.011763)
(0.138507 -0.738724 -0.00386969)
(0.108766 -0.249253 -0.000535806)
(0.0135612 0.476921 0.00910938)
(-0.203742 1.53797 -0.0628258)
(-0.25326 2.00833 -0.176264)
(0.0289207 -0.832279 0.0202375)
(0.0477198 -1.18664 0.0193779)
(0.0570256 -1.23977 0.0128387)
(0.0624982 -1.08483 0.00169932)
(0.0552051 -0.707899 -0.0138105)
(0.0176162 -0.16355 -0.0171498)
(-0.0823611 0.631841 -0.00604352)
(-0.2459 1.64546 -0.0587787)
(-0.220457 1.87562 -0.147268)
(0.0129555 -0.881233 0.0115179)
(0.0179118 -1.20876 0.010466)
(0.0171681 -1.25304 0.0047755)
(0.0132311 -1.07605 -0.00333618)
(0.000318497 -0.657378 -0.015388)
(-0.0476294 -0.0581648 -0.0261903)
(-0.151051 0.764936 -0.0201298)
(-0.267368 1.70545 -0.0592519)
(-0.191086 1.75122 -0.126402)
(0.0058196 -0.901152 0.0078313)
(0.00435835 -1.21581 0.00641729)
(-0.000804879 -1.25293 0.00203318)
(-0.00931424 -1.06079 -0.00432156)
(-0.0267005 -0.607686 -0.0142702)
(-0.0958903 0.090105 -0.0287857)
(-0.186859 0.917911 -0.0317347)
(-0.247242 1.71 -0.0605507)
(-0.146071 1.5592 -0.100528)
(0.442778 -3.98195 -0.516484)
(0.83498 -2.76499 -0.500259)
(1.33724 -1.62961 -0.465724)
(1.72067 -0.942422 -0.365141)
(1.98615 -0.555145 -0.232522)
(2.20308 -0.298984 -0.0543179)
(2.44655 -0.0346969 0.249415)
(2.2333 0.712117 0.562985)
(3.79695 2.52356 0.49049)
(0.0466941 0.883989 0.389853)
(0.172159 0.188081 0.228194)
(0.518954 -0.0888564 0.1116)
(0.896743 -0.155346 0.0563997)
(1.16698 -0.184234 0.0335983)
(1.30679 -0.201124 0.0421951)
(1.28971 -0.179198 0.0911032)
(0.8341 0.220686 0.124251)
(0.83648 2.67006 0.168944)
(-0.0029509 -0.890075 0.105467)
(0.218455 -1.21825 0.167955)
(0.371228 -1.04681 0.224626)
(0.575584 -0.795839 0.209096)
(0.736802 -0.549947 0.159077)
(0.78355 -0.290218 0.0977055)
(0.682152 0.0725793 0.0315743)
(0.27806 0.758236 -0.0603639)
(0.107618 2.78392 -0.120443)
(0.0837892 -0.822194 0.115991)
(0.156606 -1.15169 0.11516)
(0.229864 -1.08764 0.109986)
(0.334876 -0.869878 0.112267)
(0.422258 -0.568777 0.100606)
(0.433436 -0.195443 0.0705659)
(0.355159 0.31558 0.0203265)
(0.0641512 1.151 -0.0607031)
(-0.0526862 2.82232 -0.173825)
(0.0702904 -1.00725 0.0695517)
(0.142986 -1.25174 0.0779557)
(0.187884 -1.15092 0.0651355)
(0.232146 -0.926788 0.0509361)
(0.257295 -0.584807 0.0390194)
(0.236512 -0.13594 0.0333761)
(0.170908 0.462436 0.0153132)
(-0.0407458 1.35691 -0.0324675)
(-0.0809191 2.69253 -0.139219)
(0.0514113 -1.08274 0.0485482)
(0.0948051 -1.26905 0.0491217)
(0.116893 -1.16455 0.0372777)
(0.137283 -0.934446 0.0196245)
(0.140831 -0.567138 0.000970362)
(0.108248 -0.0752492 -0.000841428)
(0.0481902 0.572925 0.0017408)
(-0.112917 1.48508 -0.017744)
(-0.089987 2.50899 -0.10633)
(0.0293518 -1.14374 0.027532)
(0.0524846 -1.27509 0.0267717)
(0.059948 -1.16975 0.0175154)
(0.0654004 -0.930655 0.00253947)
(0.0562671 -0.544286 -0.0163763)
(0.0209639 -0.0175515 -0.0213796)
(-0.0358546 0.666018 -0.0107801)
(-0.156841 1.56957 -0.0126403)
(-0.096324 2.32796 -0.0834085)
(0.0137564 -1.17068 0.0149394)
(0.0218641 -1.26999 0.0131871)
(0.0211036 -1.1633 0.0062636)
(0.0164179 -0.914727 -0.00462205)
(0.000153663 -0.509836 -0.0197526)
(-0.0373424 0.0413829 -0.0318572)
(-0.0951713 0.745957 -0.0220695)
(-0.182684 1.62384 -0.0141366)
(-0.0992247 2.17571 -0.0683411)
(0.00679647 -1.18124 0.00948386)
(0.00793646 -1.26581 0.00723913)
(0.00329461 -1.15493 0.00159478)
(-0.0068189 -0.897072 -0.00638232)
(-0.0284148 -0.472499 -0.0165221)
(-0.0705134 0.10753 -0.0295975)
(-0.123598 0.817142 -0.0269557)
(-0.174207 1.6151 -0.0197961)
(-0.0883686 1.94224 -0.0515456)
(0.427265 -4.01779 -0.359335)
(0.878891 -2.89406 -0.363913)
(1.37633 -1.6662 -0.337425)
(1.74072 -0.958605 -0.267422)
(1.98356 -0.573641 -0.172852)
(2.20731 -0.325767 -0.0455321)
(2.44587 -0.0370864 0.158116)
(2.33035 0.913026 0.370011)
(3.73398 2.9461 0.410416)
(0.319603 0.752743 0.208094)
(0.325816 0.0405345 0.107522)
(0.644227 -0.187683 0.0364436)
(0.977013 -0.238618 0.00937437)
(1.20823 -0.245983 0.00553935)
(1.31622 -0.239928 0.0230086)
(1.25896 -0.178294 0.0676797)
(0.78857 0.353232 0.119544)
(0.794776 2.97923 0.245316)
(0.0339685 -1.1758 0.131019)
(0.267629 -1.31173 0.169384)
(0.44635 -1.04585 0.162348)
(0.637746 -0.778419 0.132753)
(0.771552 -0.529115 0.0951535)
(0.788309 -0.254518 0.0579994)
(0.649876 0.150257 0.0210352)
(0.204344 0.941012 -0.0151671)
(0.0582304 3.12239 0.0309734)
(0.0824372 -0.944412 0.0976698)
(0.142545 -1.16701 0.0947986)
(0.226713 -1.02524 0.0927107)
(0.344978 -0.790394 0.0910329)
(0.430153 -0.495281 0.0748284)
(0.426584 -0.119731 0.0472825)
(0.327628 0.425308 0.00924048)
(0.00929696 1.36225 -0.0340851)
(-0.0947332 3.17355 -0.0423921)
(0.0665606 -1.11348 0.0587947)
(0.136268 -1.24727 0.0564912)
(0.181748 -1.08305 0.0453863)
(0.226947 -0.835028 0.0366117)
(0.248214 -0.487406 0.0299404)
(0.218857 -0.0373712 0.0215436)
(0.142694 0.579109 0.00185534)
(-0.0759079 1.54082 -0.0295068)
(-0.10762 3.00189 -0.0478778)
(0.0481512 -1.16276 0.0371629)
(0.0905117 -1.24892 0.0327717)
(0.111884 -1.09384 0.0222177)
(0.13271 -0.841522 0.0091605)
(0.130468 -0.467915 -0.00207615)
(0.088859 0.0285866 -0.00488466)
(0.0213462 0.684763 -0.00983003)
(-0.137959 1.63752 -0.0292219)
(-0.10659 2.7653 -0.0461954)
(0.0273939 -1.2148 0.0206227)
(0.0508296 -1.25507 0.0169225)
(0.0574019 -1.102 0.00861443)
(0.0610952 -0.840243 -0.00317119)
(0.0470668 -0.445051 -0.0167245)
(0.00373569 0.0841919 -0.0221331)
(-0.0577276 0.768272 -0.0210529)
(-0.175164 1.69928 -0.0313394)
(-0.107503 2.54743 -0.0451545)
(0.0127351 -1.23718 0.0108896)
(0.0213576 -1.25003 0.00808367)
(0.019826 -1.09753 0.00182598)
(0.013236 -0.825957 -0.00732427)
(-0.00781774 -0.41511 -0.0200312)
(-0.0505266 0.134307 -0.0301263)
(-0.109871 0.835796 -0.0300183)
(-0.194238 1.73662 -0.034569)
(-0.106301 2.37351 -0.0435998)
(0.0062851 -1.24548 0.00703016)
(0.0079393 -1.24537 0.0045009)
(0.00275071 -1.08947 -0.000644237)
(-0.00936629 -0.808025 -0.00789376)
(-0.0346909 -0.38129 -0.0177262)
(-0.0767655 0.185623 -0.0282183)
(-0.128766 0.88811 -0.0315137)
(-0.17841 1.71158 -0.0342022)
(-0.0918673 2.12273 -0.0373661)
(0.440833 -4.05891 -0.171744)
(0.911109 -2.92918 -0.171745)
(1.40966 -1.66222 -0.160537)
(1.76846 -0.948953 -0.129934)
(2.00384 -0.571047 -0.0845366)
(2.22993 -0.332207 -0.0211757)
(2.46275 -0.0361422 0.0759156)
(2.35826 0.975278 0.172644)
(3.66867 3.07324 0.2127)
(0.3871 0.66673 0.080734)
(0.393983 0.0118484 0.0471904)
(0.70376 -0.192169 0.0126966)
(1.01616 -0.241261 -0.00160799)
(1.22749 -0.248518 -0.00188995)
(1.31662 -0.241571 0.00992814)
(1.23199 -0.171249 0.0356022)
(0.744723 0.401833 0.068758)
(0.724646 3.02741 0.159365)
(0.0458704 -1.24003 0.0818291)
(0.296311 -1.31094 0.0936214)
(0.492341 -1.03163 0.0827668)
(0.670702 -0.764937 0.0640716)
(0.78283 -0.514402 0.0447946)
(0.775046 -0.230072 0.0271324)
(0.606606 0.199352 0.0111906)
(0.130896 1.04888 0.00199067)
(-0.0183738 3.19714 0.0531901)
(0.0811584 -0.994404 0.049099)
(0.139206 -1.17 0.0498344)
(0.234245 -1.00731 0.0525994)
(0.355252 -0.765041 0.0499163)
(0.429153 -0.466038 0.0390339)
(0.40739 -0.0768865 0.0227853)
(0.284789 0.502145 0.00298401)
(-0.06013 1.51622 -0.0133365)
(-0.165793 3.2839 0.00628782)
(0.0640963 -1.15276 0.0319659)
(0.132783 -1.24108 0.0303589)
(0.176821 -1.05411 0.0255666)
(0.219928 -0.792021 0.021764)
(0.235133 -0.43857 0.0173183)
(0.194438 0.0221815 0.0102373)
(0.101518 0.669677 -0.00182397)
(-0.131883 1.70156 -0.014546)
(-0.165078 3.11434 -0.00366694)
(0.046003 -1.19461 0.0194433)
(0.0871114 -1.23857 0.0172286)
(0.106878 -1.0599 0.0118884)
(0.124913 -0.79177 0.00499245)
(0.115434 -0.408311 -0.00089558)
(0.0641363 0.0987623 -0.00372153)
(-0.0169012 0.781031 -0.00806484)
(-0.182698 1.78862 -0.0158363)
(-0.15168 2.86269 -0.00657293)
(0.0259884 -1.24221 0.0108385)
(0.0484375 -1.24222 0.00879371)
(0.0532792 -1.06552 0.00424426)
(0.0541012 -0.78708 -0.00248588)
(0.034185 -0.380434 -0.00999366)
(-0.0176119 0.159375 -0.0135291)
(-0.0902952 0.865626 -0.0140371)
(-0.211055 1.83768 -0.0173092)
(-0.142973 2.63128 -0.00846206)
(0.0117135 -1.26155 0.0056278)
(0.0199428 -1.23549 0.00404547)
(0.0169282 -1.05984 0.000458077)
(0.00773226 -0.771713 -0.00499296)
(-0.0182234 -0.349541 -0.0122818)
(-0.0675766 0.21023 -0.0179896)
(-0.135312 0.93074 -0.0185303)
(-0.222074 1.86255 -0.0186816)
(-0.13378 2.44859 -0.00924576)
(0.00577368 -1.26837 0.00384355)
(0.00702689 -1.22986 0.00230198)
(0.000686206 -1.05099 -0.000750055)
(-0.0136161 -0.753219 -0.00515747)
(-0.0428634 -0.316206 -0.0109627)
(-0.0888184 0.258401 -0.0167493)
(-0.145879 0.975831 -0.0185966)
(-0.198118 1.82145 -0.0174013)
(-0.111249 2.18639 -0.00810832)
(0.447489 -4.0988 0.00940406)
(0.92336 -2.9418 0.0031736)
(1.42176 -1.66032 0.00241861)
(1.77938 -0.944533 0.00174635)
(2.01295 -0.568847 0.00138862)
(2.23941 -0.332903 0.001177)
(2.46934 -0.0343811 0.0010324)
(2.36588 0.992916 0.000797731)
(3.64795 3.10602 0.000224205)
(0.403198 0.646464 -0.00116439)
(0.413294 0.00468327 0.00215838)
(0.721644 -0.191467 0.00227053)
(1.02839 -0.239021 0.00161769)
(1.23376 -0.246683 0.00118857)
(1.31665 -0.240255 0.000937412)
(1.22286 -0.167998 0.000757316)
(0.729289 0.415422 0.000581957)
(0.701055 3.02741 0.00033071)
(0.0513002 -1.25178 -0.00445428)
(0.307807 -1.31131 0.001567)
(0.507289 -1.0285 0.00177046)
(0.680804 -0.760459 0.000968616)
(0.785418 -0.50879 0.0006477)
(0.768892 -0.221106 0.000519871)
(0.589751 0.21632 0.000426459)
(0.103244 1.08504 0.000322597)
(-0.0467662 3.19849 0.000177195)
(0.0814636 -1.01148 -0.0041883)
(0.139547 -1.17306 0.000457104)
(0.237792 -1.00456 0.000346992)
(0.358522 -0.758897 -0.000106502)
(0.427578 -0.457075 -7.19341e-05)
(0.398649 -0.061997 4.45925e-05)
(0.266789 0.529525 0.000126445)
(-0.0877767 1.56895 0.000150947)
(-0.193354 3.30056 9.67259e-05)
(0.063676 -1.16347 -0.00161984)
(0.131591 -1.23828 -0.00102435)
(0.174735 -1.04551 -0.000543689)
(0.21673 -0.778773 -0.000526592)
(0.229274 -0.422691 -0.000427397)
(0.183813 0.0432163 -0.000264883)
(0.083715 0.703279 -9.50762e-05)
(-0.155039 1.75938 1.90614e-05)
(-0.188192 3.136 4.61719e-05)
(0.0451208 -1.20363 -0.000696857)
(0.0857505 -1.2347 -0.000384518)
(0.104725 -1.04896 -0.000370746)
(0.12127 -0.775227 -0.000472691)
(0.108758 -0.387752 -0.000489919)
(0.0533986 0.124269 -0.000394922)
(-0.0335834 0.81797 -0.000225122)
(-0.201974 1.84473 -7.93043e-05)
(-0.170367 2.88187 5.02292e-06)
(0.0254223 -1.24951 -0.000351223)
(0.0473774 -1.23718 -0.00026727)
(0.0514222 -1.05322 -0.000299409)
(0.0509767 -0.768767 -0.000379425)
(0.0283929 -0.357315 -0.000435258)
(-0.0270909 0.187531 -0.000402578)
(-0.104992 0.904046 -0.000278682)
(-0.227304 1.89022 -0.000141523)
(-0.158124 2.64727 -2.81722e-05)
(0.0113036 -1.26779 -0.00025481)
(0.0192713 -1.22975 -0.000230439)
(0.0156221 -1.04686 -0.000270927)
(0.00524433 -0.752736 -0.000325413)
(-0.0229154 -0.325526 -0.000365301)
(-0.0754306 0.239614 -0.000352897)
(-0.14751 0.969343 -0.000280713)
(-0.235545 1.91133 -0.000171441)
(-0.145978 2.4625 -4.95028e-05)
(0.00546675 -1.27408 0.000167216)
(0.00652885 -1.22377 1.20429e-05)
(-0.000344034 -1.03769 -0.00010073)
(-0.0156486 -0.733947 -0.000188513)
(-0.0466365 -0.291973 -0.000248681)
(-0.0948098 0.287651 -0.000283345)
(-0.154999 1.01316 -0.000250491)
(-0.20868 1.8658 -0.000176699)
(-0.120421 2.19822 -6.16841e-05)
(0.434768 -4.0659 0.205687)
(0.909888 -2.93709 0.180443)
(1.40938 -1.6643 0.165896)
(1.76836 -0.949572 0.133389)
(2.00381 -0.5711 0.0871808)
(2.22998 -0.332136 0.0234163)
(2.46276 -0.0359541 -0.0739253)
(2.35826 0.975527 -0.171161)
(3.66867 3.07342 -0.212481)
(0.394738 0.663376 -0.0833013)
(0.393485 0.00540199 -0.0413824)
(0.704504 -0.193459 -0.0072182)
(1.01601 -0.241468 0.00500423)
(1.22727 -0.248386 0.00426129)
(1.31648 -0.241372 -0.00808757)
(1.23186 -0.17099 -0.034136)
(0.744515 0.402254 -0.0676866)
(0.724622 3.02791 -0.158931)
(0.0491845 -1.23936 -0.0951594)
(0.2978 -1.31595 -0.094259)
(0.49424 -1.03357 -0.0800493)
(0.670888 -0.765021 -0.0622176)
(0.782643 -0.514174 -0.0434501)
(0.774833 -0.229754 -0.0260875)
(0.606397 0.199743 -0.0103567)
(0.130636 1.04945 -0.00139981)
(-0.0184881 3.19769 -0.052988)
(0.0833285 -0.986274 -0.0571398)
(0.137953 -1.16924 -0.0529247)
(0.23579 -1.00731 -0.053157)
(0.355809 -0.764693 -0.050266)
(0.429076 -0.465763 -0.0391587)
(0.407262 -0.0765455 -0.0227)
(0.28462 0.502589 -0.00273925)
(-0.0603648 1.51689 0.013611)
(-0.165932 3.28449 -0.00619438)
(0.0652766 -1.14812 -0.0346643)
(0.133714 -1.239 -0.031869)
(0.177272 -1.05381 -0.0265507)
(0.219994 -0.791468 -0.0227973)
(0.235123 -0.438154 -0.0181624)
(0.19437 0.0225903 -0.0107686)
(0.101392 0.67017 0.00163303)
(-0.132063 1.70228 0.0145695)
(-0.165206 3.11492 0.00367998)
(0.0459292 -1.1913 -0.020703)
(0.0874001 -1.23703 -0.0181374)
(0.107133 -1.05905 -0.012666)
(0.124973 -0.791211 -0.00590367)
(0.115478 -0.407892 -4.65606e-05)
(0.0641112 0.099192 0.00295298)
(-0.0169882 0.781559 0.00762686)
(-0.182827 1.78935 0.0156739)
(-0.151783 2.86325 0.00651899)
(0.0260994 -1.23985 -0.0114922)
(0.0486596 -1.24096 -0.00934378)
(0.0534758 -1.06479 -0.00483054)
(0.0542192 -0.786611 0.00176432)
(0.0342651 -0.380053 0.00917032)
(-0.0175954 0.159804 0.0127609)
(-0.0903458 0.866167 0.013504)
(-0.211146 1.83841 0.0170316)
(-0.14305 2.63183 0.00835557)
(0.0118035 -1.25941 -0.00612434)
(0.0201239 -1.23429 -0.00450323)
(0.0171119 -1.05913 -0.000990039)
(0.00788339 -0.771282 0.00436638)
(-0.0181119 -0.349179 0.0115887)
(-0.0675298 0.210647 0.0173223)
(-0.135336 0.931276 0.0180002)
(-0.22214 1.86326 0.0183504)
(-0.133838 2.44914 0.00910756)
(0.00583853 -1.26643 -0.00351693)
(0.00713785 -1.22879 -0.00228377)
(0.000801877 -1.05036 0.000553417)
(-0.0135152 -0.752864 0.00479457)
(-0.0427898 -0.315923 0.0104892)
(-0.0887661 0.258817 0.0162128)
(-0.145892 0.976349 0.0181249)
(-0.198169 1.82214 0.0170603)
(-0.11129 2.18694 0.00795681)
(0.399415 -3.93568 0.412955)
(0.872546 -2.91584 0.377216)
(1.37461 -1.66988 0.342667)
(1.74079 -0.960373 0.270297)
(1.98377 -0.573984 0.174901)
(2.20771 -0.325779 0.0473336)
(2.44606 -0.0366251 -0.156398)
(2.33045 0.913468 -0.36893)
(3.73407 2.94612 -0.410843)
(0.364262 0.784652 -0.215461)
(0.321054 0.0158261 -0.094557)
(0.644413 -0.189213 -0.0285521)
(0.975279 -0.238731 -0.00585933)
(1.20739 -0.245417 -0.00341081)
(1.31589 -0.239399 -0.0213888)
(1.25878 -0.1777 -0.066411)
(0.788246 0.354078 -0.118755)
(0.794984 2.98014 -0.245449)
(0.0623403 -1.17872 -0.157258)
(0.273487 -1.30834 -0.168576)
(0.449273 -1.04897 -0.159243)
(0.636614 -0.778482 -0.130885)
(0.770692 -0.528601 -0.0938727)
(0.787719 -0.25383 -0.05706)
(0.649489 0.151063 -0.0203067)
(0.203949 0.942027 0.0155967)
(0.0582569 3.12351 -0.0311414)
(0.0909849 -0.930137 -0.10775)
(0.146426 -1.16099 -0.0991684)
(0.22909 -1.02647 -0.094289)
(0.345538 -0.790481 -0.0914473)
(0.429778 -0.495062 -0.0750466)
(0.426285 -0.119144 -0.0472908)
(0.327356 0.426126 -0.00905327)
(0.0089557 1.36343 0.0342661)
(-0.0947767 3.17467 0.0422368)
(0.0676935 -1.10227 -0.0612104)
(0.137353 -1.24156 -0.0575247)
(0.182939 -1.08171 -0.0462281)
(0.22719 -0.834172 -0.0375195)
(0.248236 -0.486891 -0.030775)
(0.218774 -0.03668 -0.0220885)
(0.142543 0.579975 -0.0020529)
(-0.0761514 1.54205 0.0294868)
(-0.107683 3.00297 0.0476999)
(0.0486995 -1.15576 -0.0382475)
(0.0910771 -1.24525 -0.0335349)
(0.11245 -1.09218 -0.0228988)
(0.132904 -0.840618 -0.00991356)
(0.130652 -0.467289 0.00125286)
(0.088893 0.0293054 0.00419646)
(0.0212815 0.685662 0.0094356)
(-0.138109 1.63876 0.0290583)
(-0.106639 2.76636 0.0459935)
(0.0276887 -1.20914 -0.0211995)
(0.0512993 -1.25216 -0.0174474)
(0.0578646 -1.10051 -0.00912081)
(0.061389 -0.839455 0.00257158)
(0.0472936 -0.444494 0.0160437)
(0.00385027 0.0848797 0.0214901)
(-0.0577227 0.769166 0.0206006)
(-0.175247 1.7005 0.0310919)
(-0.107533 2.5485 0.0449416)
(0.0128368 -1.23189 -0.011336)
(0.0217485 -1.24733 -0.00851327)
(0.0202427 -1.09611 -0.00231347)
(0.0135775 -0.825243 0.00678025)
(-0.00754591 -0.414584 0.0194513)
(-0.0503627 0.134954 0.0295779)
(-0.109825 0.836657 0.0295858)
(-0.194285 1.73781 0.0342876)
(-0.106319 2.37458 0.0433886)
(0.00649073 -1.24056 -0.00678958)
(0.0081886 -1.24291 -0.00449706)
(0.00301231 -1.08819 0.00046478)
(-0.0091371 -0.807449 0.00757425)
(-0.0345109 -0.380933 0.0173203)
(-0.0766008 0.186263 0.027767)
(-0.128717 0.888924 0.0311297)
(-0.178446 1.71273 0.0339122)
(-0.0918767 2.12379 0.0371763)
(0.284856 -3.58684 0.519025)
(0.823449 -2.8319 0.522377)
(1.33342 -1.63612 0.468689)
(1.72312 -0.948537 0.367425)
(1.98809 -0.557135 0.234123)
(2.20502 -0.300072 0.0556364)
(2.44756 -0.0335662 -0.248066)
(2.23382 0.712799 -0.562543)
(3.79694 2.52244 -0.490804)
(0.172456 1.10227 -0.419008)
(0.135865 0.102862 -0.216272)
(0.51172 -0.0845415 -0.104789)
(0.890655 -0.155336 -0.0544955)
(1.16492 -0.182612 -0.0324986)
(1.30639 -0.200004 -0.0411888)
(1.28975 -0.178026 -0.0901986)
(0.833859 0.222084 -0.124006)
(0.837502 2.67081 -0.169639)
(0.0928866 -0.916948 -0.125167)
(0.230522 -1.23107 -0.18955)
(0.376265 -1.05644 -0.219639)
(0.571992 -0.796944 -0.208457)
(0.734933 -0.549155 -0.158114)
(0.782534 -0.289066 -0.0970498)
(0.681753 0.073958 -0.0310449)
(0.277771 0.75962 0.0604892)
(0.10824 2.78483 0.119807)
(0.106966 -0.78778 -0.127021)
(0.163588 -1.15139 -0.121755)
(0.234794 -1.09251 -0.111132)
(0.33529 -0.871846 -0.113095)
(0.421939 -0.568983 -0.101036)
(0.433078 -0.194766 -0.0707013)
(0.354991 0.316691 -0.0201904)
(0.0639739 1.15236 0.0607519)
(-0.0521822 2.82329 0.173314)
(0.0737812 -0.985846 -0.0716359)
(0.144277 -1.24523 -0.0795428)
(0.189675 -1.14942 -0.065873)
(0.232894 -0.926539 -0.0516966)
(0.25755 -0.584611 -0.0397487)
(0.236563 -0.135235 -0.0338718)
(0.170931 0.463483 -0.0154689)
(-0.040819 1.35823 0.0324237)
(-0.0805436 2.69362 0.138812)
(0.0526769 -1.0703 -0.0493947)
(0.0956678 -1.26304 -0.0497568)
(0.117664 -1.1624 -0.0378883)
(0.137803 -0.933724 -0.0202801)
(0.141221 -0.566757 -0.00163103)
(0.108477 -0.0745381 0.000310674)
(0.0483326 0.573917 -0.00202799)
(-0.112901 1.48638 0.0176276)
(-0.0896906 2.51021 0.10598)
(0.0298829 -1.13314 -0.0280416)
(0.0533784 -1.27014 -0.0273511)
(0.0607969 -1.16781 -0.0180163)
(0.0659477 -0.929962 -0.00304346)
(0.0567116 -0.543949 0.0158642)
(0.0212904 -0.0169138 0.0209323)
(-0.0356319 0.666917 0.010483)
(-0.156767 1.57086 0.0124833)
(-0.0960853 2.3293 0.0831109)
(0.0141261 -1.16071 -0.0152854)
(0.0224986 -1.26525 -0.013538)
(0.0218464 -1.16119 -0.00667211)
(0.0170204 -0.914077 0.00419376)
(0.000662642 -0.509539 0.019331)
(-0.0369624 0.0419502 0.0314839)
(-0.0949137 0.746768 0.0218088)
(-0.182596 1.62513 0.0139642)
(-0.0990418 2.17716 0.0680897)
(0.00704681 -1.17176 -0.00936827)
(0.00834172 -1.26141 -0.00723578)
(0.0037294 -1.15306 -0.00172791)
(-0.0064258 -0.896604 0.00613503)
(-0.0280832 -0.472507 0.0162147)
(-0.0701408 0.108074 0.0292616)
(-0.12338 0.817886 0.0267175)
(-0.174142 1.61638 0.0196042)
(-0.0882323 1.94373 0.0513596)
(0.0537557 -2.03008 0.440985)
(1.03444 -2.14546 0.596065)
(1.41509 -1.30763 0.554237)
(1.91615 -0.771682 0.450965)
(2.19649 -0.432384 0.313316)
(2.36371 -0.244015 0.150995)
(2.49366 -0.131771 -0.129191)
(1.69878 -0.0173536 -0.445364)
(3.22743 1.24378 -0.336484)
(-0.0739018 1.04 -0.379103)
(-0.297214 0.309248 -0.107823)
(0.251468 0.493698 -0.167412)
(0.59802 0.314699 -0.126609)
(0.950661 0.185635 -0.094078)
(1.15542 0.0327009 -0.0702216)
(1.17578 -0.140758 -0.0721684)
(0.666932 -0.188311 -0.0541463)
(0.35147 1.75494 -0.0451937)
(0.110813 -0.221207 -0.041703)
(0.0974819 -0.69934 -0.0220768)
(0.254108 -0.808335 -0.107346)
(0.399793 -0.704745 -0.138025)
(0.564512 -0.543589 -0.138835)
(0.637006 -0.33081 -0.106371)
(0.584219 -0.0383084 -0.0399444)
(0.210026 0.501816 0.0821904)
(-0.229898 2.07158 0.19161)
(0.0951562 -0.348767 -0.0940315)
(0.147939 -0.868129 -0.0834725)
(0.226597 -0.973675 -0.0798169)
(0.305182 -0.88479 -0.0732324)
(0.374232 -0.660065 -0.0773175)
(0.373957 -0.313113 -0.0776684)
(0.301375 0.184234 -0.0390817)
(-0.00751062 1.04005 0.0856204)
(-0.307723 2.16794 0.23669)
(0.0668927 -0.57838 -0.0471897)
(0.126625 -1.02529 -0.0489277)
(0.176701 -1.11446 -0.0450036)
(0.222358 -1.01142 -0.0292394)
(0.250661 -0.738092 -0.0217523)
(0.228505 -0.309597 -0.0318838)
(0.141781 0.325773 -0.0278606)
(-0.12749 1.35327 0.0703362)
(-0.286234 2.11844 0.20915)
(0.0504954 -0.718596 -0.0349819)
(0.0888135 -1.12027 -0.0355126)
(0.113881 -1.19244 -0.0267616)
(0.134615 -1.06437 -0.012262)
(0.139397 -0.738904 0.00347521)
(0.10946 -0.248766 0.000205407)
(0.0142667 0.477504 -0.00927922)
(-0.203321 1.53894 0.0627671)
(-0.252162 2.00999 0.176402)
(0.0296724 -0.817378 -0.0207393)
(0.0488169 -1.17819 -0.0197873)
(0.0583012 -1.23618 -0.0126125)
(0.0634898 -1.08442 -0.00197273)
(0.0560577 -0.708453 0.0135163)
(0.0184553 -0.163182 0.016943)
(-0.0816188 0.63211 0.0058833)
(-0.24553 1.64659 0.0587014)
(-0.219738 1.87755 0.147408)
(0.0134298 -0.867104 -0.0117883)
(0.0188348 -1.20122 -0.0106388)
(0.018287 -1.2499 -0.00548819)
(0.0141939 -1.07604 0.00299777)
(0.00127887 -0.657994 0.0151164)
(-0.0467228 -0.0575696 0.0259933)
(-0.150337 0.765093 0.0200009)
(-0.267088 1.70676 0.0591782)
(-0.190644 1.75335 0.126537)
(0.00609663 -0.88776 -0.00787019)
(0.00494157 -1.20882 -0.0064376)
(-8.98233e-05 -1.25004 -0.00208533)
(-0.00871146 -1.06116 0.00416398)
(-0.0261437 -0.609164 0.0140351)
(-0.0949899 0.0903649 0.0285601)
(-0.18631 0.918085 0.0316168)
(-0.247109 1.71152 0.0604919)
(-0.145798 1.56141 0.10069)
)
;

boundaryField
{
    inlet
    {
        type            fixedValue;
        value           uniform (10 0 0);
    }
    outlet
    {
        type            zeroGradient;
    }
    lowerWall
    {
        type            noSlip;
    }
    upperWall
    {
        type            noSlip;
    }
}


// ************************************************************************* //
