/*--------------------------------*- C++ -*----------------------------------*\
| =========                 |                                                 |
| \\      /  F ield         | OpenFOAM: The Open Source CFD Toolbox           |
|  \\    /   O peration     | Version:  2306                                  |
|   \\  /    A nd           | Website:  www.openfoam.com                      |
|    \\/     M anipulation  |                                                 |
\*---------------------------------------------------------------------------*/
FoamFile
{
    version     2.0;
    format      ascii;
    arch        "LSB;label=32;scalar=64";
    class       volScalarField;
    location    "2.3";
    object      p;
}
// * * * * * * * * * * * * * * * * * * * * * * * * * * * * * * * * * * * * * //

dimensions      [0 2 -2 0 0 0 0];

internalField   nonuniform List<scalar> 
288632
(
48.5973
48.5886
48.5975
48.6173
48.6453
48.6803
48.7242
48.7534
48.8535
48.7971
48.9659
48.9087
48.9685
-0.567912
-0.480842
-0.668856
-0.441548
-0.493989
-0.413389
-0.353051
-0.290602
-0.226661
-0.162001
-0.0974646
-0.032635
48.5906
48.5868
48.5966
48.6164
48.6445
48.6796
48.7235
48.753
48.8528
48.7969
48.965
48.9077
48.9684
-0.568367
-0.48137
-0.670264
-0.44251
-0.495007
-0.414288
-0.353799
-0.291214
-0.227135
-0.162338
-0.0976666
-0.0327031
48.5877
48.5847
48.5949
48.6147
48.6428
48.6779
48.7219
48.7518
48.8512
48.797
48.9635
48.9068
48.9685
-0.570258
-0.483979
-0.672875
-0.444772
-0.497082
-0.416087
-0.355314
-0.292449
-0.22809
-0.163017
-0.098072
-0.032838
48.5837
48.5817
48.5922
48.6122
48.6403
48.6754
48.7194
48.75
48.8487
48.7968
48.9609
48.9063
48.9685
-0.573761
-0.487485
-0.676727
-0.448075
-0.500164
-0.418751
-0.357569
-0.294287
-0.229513
-0.164027
-0.0986755
-0.0330385
48.5796
48.5782
48.5889
48.6089
48.637
48.6721
48.7161
48.7475
48.8453
48.7964
48.9575
48.9054
48.9682
-0.578712
-0.492646
-0.681778
-0.452531
-0.504228
-0.422261
-0.360537
-0.296706
-0.231383
-0.165355
-0.0994691
-0.0333019
48.5753
48.5741
48.585
48.605
48.6329
48.6679
48.7119
48.7444
48.841
48.7959
48.9535
48.9045
48.9678
-0.585005
-0.498837
-0.687939
-0.457979
-0.509198
-0.426562
-0.364177
-0.299672
-0.233678
-0.166985
-0.100442
-0.0336247
48.5707
48.5697
48.5805
48.6003
48.6281
48.6631
48.7071
48.7406
48.8359
48.7949
48.9493
48.9037
48.9673
-0.592551
-0.506282
-0.695152
-0.464398
-0.515021
-0.431602
-0.36844
-0.303146
-0.236364
-0.168892
-0.101581
-0.0340026
48.5658
48.5648
48.5755
48.5952
48.6228
48.6576
48.7015
48.7363
48.8302
48.7939
48.9447
48.9029
48.967
-0.601219
-0.514698
-0.703297
-0.471674
-0.521609
-0.437309
-0.373267
-0.307078
-0.239405
-0.171052
-0.102871
-0.0344303
48.5607
48.5596
48.5702
48.5896
48.6169
48.6515
48.6954
48.7314
48.8239
48.7924
48.9404
48.9024
48.9671
-0.610865
-0.524027
-0.712272
-0.47971
-0.528871
-0.443603
-0.378589
-0.311414
-0.242757
-0.173432
-0.104292
-0.0349018
48.5554
48.5542
48.5645
48.5836
48.6106
48.645
48.6888
48.7261
48.8172
48.7901
48.9372
48.9023
48.9678
-0.62134
-0.53411
-0.721944
-0.488387
-0.536702
-0.450392
-0.384329
-0.316091
-0.246374
-0.176
-0.105826
-0.0354103
48.55
48.5486
48.5586
48.5773
48.6039
48.6381
48.6819
48.7206
48.8103
48.7877
48.9347
48.9029
48.9693
-0.632483
-0.544796
-0.732172
-0.497574
-0.544987
-0.457577
-0.390404
-0.32104
-0.2502
-0.178717
-0.107448
-0.0359484
48.5445
48.5429
48.5526
48.5709
48.597
48.6309
48.6747
48.7148
48.8032
48.7858
48.9326
48.9044
48.9721
-0.644122
-0.555919
-0.7428
-0.507133
-0.553602
-0.465049
-0.396721
-0.326186
-0.254179
-0.181542
-0.109135
-0.0365079
48.539
48.5373
48.5465
48.5644
48.5901
48.6237
48.6674
48.709
48.7961
48.7845
48.9314
48.9072
48.9763
-0.656081
-0.567305
-0.753665
-0.516915
-0.562414
-0.472693
-0.403184
-0.331451
-0.25825
-0.184433
-0.110861
-0.0370803
48.5337
48.5317
48.5406
48.5579
48.5831
48.6164
48.6601
48.7033
48.7892
48.7837
48.9313
48.9117
48.9823
-0.668167
-0.578774
-0.764597
-0.526765
-0.571286
-0.480389
-0.409692
-0.336753
-0.262349
-0.187343
-0.112598
-0.0376567
48.5286
48.5263
48.5347
48.5515
48.5762
48.6092
48.653
48.6977
48.7828
48.7836
48.9324
48.9181
48.9902
-0.680194
-0.590145
-0.77542
-0.536528
-0.580075
-0.488014
-0.41614
-0.342006
-0.26641
-0.190226
-0.11432
-0.0382278
48.5237
48.5213
48.5292
48.5454
48.5696
48.6023
48.6461
48.6925
48.7768
48.7842
48.935
48.9262
49.0003
-0.691962
-0.601233
-0.785958
-0.546045
-0.588638
-0.495445
-0.422425
-0.347126
-0.270369
-0.193037
-0.115998
-0.0387844
48.5193
48.5165
48.524
48.5397
48.5633
48.5957
48.6396
48.6876
48.7716
48.7856
48.939
48.9358
49.0125
-0.703285
-0.61186
-0.796037
-0.55516
-0.596834
-0.502559
-0.428441
-0.352027
-0.274158
-0.195727
-0.117605
-0.0393172
48.5153
48.5122
48.5192
48.5343
48.5575
48.5896
48.6336
48.6832
48.7671
48.7877
48.9443
48.947
49.0263
-0.713971
-0.621845
-0.805484
-0.56372
-0.604523
-0.509236
-0.434087
-0.356628
-0.277715
-0.198252
-0.119112
-0.0398174
48.5119
48.5085
48.5149
48.5295
48.5522
48.584
48.6282
48.6794
48.7633
48.7903
48.9507
48.9592
49.0413
-0.72385
-0.631048
-0.814144
-0.571587
-0.611577
-0.515364
-0.439269
-0.360849
-0.280979
-0.200569
-0.120496
-0.0402762
48.5091
48.5053
48.5112
48.5253
48.5475
48.5791
48.6234
48.6761
48.7603
48.7932
48.9577
48.9716
49.0568
-0.732757
-0.639281
-0.821853
-0.578614
-0.617868
-0.520835
-0.443895
-0.364618
-0.283893
-0.202638
-0.121731
-0.0406859
48.5072
48.5028
48.5082
48.5217
48.5435
48.5749
48.6194
48.6733
48.7581
48.7961
48.9649
48.9838
49.0721
-0.740552
-0.646479
-0.8285
-0.584708
-0.623297
-0.525557
-0.447886
-0.367869
-0.286406
-0.204423
-0.122797
-0.0410392
48.5061
48.501
48.5057
48.5188
48.5402
48.5715
48.6162
48.6712
48.7564
48.7989
48.9716
48.9949
49.0862
-0.747115
-0.652412
-0.833939
-0.589726
-0.627754
-0.52944
-0.45117
-0.370544
-0.288474
-0.205891
-0.123673
-0.0413297
48.5063
48.4999
48.504
48.5167
48.5378
48.5689
48.6137
48.6696
48.7553
48.8013
48.9774
49.0042
49.0982
-0.752344
-0.657197
-0.838102
-0.593631
-0.631181
-0.532423
-0.45369
-0.372597
-0.290061
-0.207017
-0.124345
-0.0415523
48.506
48.4992
48.5028
48.5153
48.5362
48.5672
48.6121
48.6686
48.7547
48.8031
48.9815
49.0111
49.1073
-0.75616
-0.660338
-0.840892
-0.596276
-0.633501
-0.534436
-0.455398
-0.373988
-0.291136
-0.20778
-0.124801
-0.0417028
48.5121
48.4998
48.5024
48.5147
48.5355
48.5664
48.6114
48.6682
48.7545
48.8043
48.9844
49.0145
49.1133
-0.758505
-0.662695
-0.842231
-0.597748
-0.634696
-0.535452
-0.456272
-0.374698
-0.291684
-0.208169
-0.125032
-0.0417783
48.5899
48.5859
48.5957
48.6155
48.6435
48.6785
48.7223
48.7517
48.8514
48.7954
48.9634
48.9064
48.9673
-0.570046
-0.482823
-0.671194
-0.443486
-0.495133
-0.414509
-0.353706
-0.290941
-0.226781
-0.161994
-0.0974115
-0.0326
48.5834
48.584
48.5949
48.6147
48.6427
48.6778
48.7216
48.7512
48.8507
48.7962
48.9589
48.9054
48.9674
-0.570467
-0.483378
-0.672628
-0.444469
-0.496169
-0.415425
-0.354465
-0.291561
-0.227262
-0.162335
-0.0976161
-0.032669
48.5805
48.5819
48.5931
48.613
48.641
48.6761
48.72
48.7501
48.849
48.7965
48.9566
48.9045
48.9677
-0.572383
-0.486042
-0.675286
-0.446769
-0.498277
-0.41725
-0.356001
-0.292812
-0.228229
-0.163022
-0.0980263
-0.0328055
48.5765
48.5789
48.5904
48.6104
48.6385
48.6735
48.7174
48.7482
48.8464
48.7965
48.9532
48.9038
48.9677
-0.57594
-0.489617
-0.679205
-0.45013
-0.501406
-0.419954
-0.358288
-0.294675
-0.229669
-0.164044
-0.098637
-0.0330083
48.5723
48.5755
48.587
48.6071
48.6351
48.6701
48.714
48.7456
48.8428
48.7964
48.9492
48.9028
48.9674
-0.580962
-0.49487
-0.684342
-0.45466
-0.505534
-0.423517
-0.361298
-0.297126
-0.231564
-0.165389
-0.0994401
-0.0332747
48.568
48.5714
48.5831
48.6031
48.631
48.6659
48.7098
48.7423
48.8383
48.7959
48.9446
48.9018
48.9669
-0.587346
-0.501177
-0.690611
-0.460201
-0.510582
-0.427882
-0.36499
-0.300132
-0.233888
-0.167039
-0.100425
-0.0336014
48.5634
48.5669
48.5786
48.5984
48.6261
48.6609
48.7048
48.7383
48.833
48.7945
48.9402
48.9007
48.9663
-0.595001
-0.508758
-0.69795
-0.466728
-0.516497
-0.432999
-0.369314
-0.303654
-0.236609
-0.168971
-0.101578
-0.0339839
48.5585
48.562
48.5736
48.5932
48.6207
48.6553
48.6991
48.7338
48.827
48.7925
48.9358
48.8997
48.9659
-0.603795
-0.51733
-0.70624
-0.474129
-0.523191
-0.438794
-0.374211
-0.307641
-0.239691
-0.171158
-0.102884
-0.0344169
48.5533
48.5568
48.5682
48.5876
48.6147
48.6491
48.6928
48.7287
48.8204
48.7901
48.9317
48.8988
48.9657
-0.61358
-0.526833
-0.715378
-0.482304
-0.530571
-0.445186
-0.379612
-0.312038
-0.243089
-0.17357
-0.104324
-0.0348943
48.548
48.5514
48.5625
48.5815
48.6083
48.6425
48.686
48.7231
48.8133
48.7873
48.9278
48.8982
48.966
-0.624208
-0.537105
-0.725226
-0.491133
-0.538532
-0.452083
-0.385439
-0.316782
-0.246755
-0.176172
-0.105877
-0.0354094
48.5426
48.5458
48.5565
48.5752
48.6016
48.6354
48.6788
48.7172
48.8058
48.7846
48.9243
48.8983
48.9672
-0.635515
-0.547993
-0.735643
-0.500484
-0.546957
-0.459384
-0.391607
-0.321804
-0.250636
-0.178927
-0.107521
-0.0359545
48.5371
48.5401
48.5505
48.5686
48.5946
48.6281
48.6713
48.711
48.7982
48.782
48.9213
48.8992
48.9694
-0.647329
-0.559328
-0.746471
-0.510214
-0.555719
-0.466978
-0.398023
-0.327027
-0.254672
-0.181791
-0.109232
-0.0365216
48.5316
48.5344
48.5444
48.5621
48.5875
48.6206
48.6637
48.7048
48.7905
48.7798
48.9191
48.9013
48.9731
-0.659465
-0.570933
-0.757541
-0.520173
-0.564684
-0.474749
-0.40459
-0.332373
-0.258803
-0.184723
-0.110982
-0.0371019
48.5263
48.5288
48.5383
48.5555
48.5803
48.6131
48.6561
48.6986
48.783
48.7781
48.9179
48.9049
48.9784
-0.671736
-0.582625
-0.768683
-0.530205
-0.573712
-0.482575
-0.411203
-0.337757
-0.262963
-0.187676
-0.112744
-0.0376863
48.5211
48.5234
48.5325
48.5491
48.5733
48.6057
48.6487
48.6925
48.7759
48.777
48.918
48.9103
48.9856
-0.683944
-0.594217
-0.779715
-0.540149
-0.582658
-0.490331
-0.417757
-0.343093
-0.267087
-0.190602
-0.114491
-0.0382657
48.5163
48.5182
48.5269
48.5429
48.5666
48.5986
48.6414
48.6867
48.7693
48.7766
48.9195
48.9174
48.9949
-0.695893
-0.605522
-0.790459
-0.549845
-0.591377
-0.497892
-0.424146
-0.348295
-0.271107
-0.193455
-0.116194
-0.0388304
48.5118
48.5135
48.5216
48.537
48.5601
48.5918
48.6346
48.6813
48.7634
48.7769
48.9224
48.9261
49.0064
-0.707384
-0.616358
-0.800736
-0.559132
-0.599723
-0.505131
-0.430264
-0.353277
-0.274956
-0.196187
-0.117825
-0.0393712
48.5078
48.5092
48.5168
48.5316
48.5542
48.5854
48.6283
48.6764
48.7582
48.7778
48.9266
48.9363
49.0195
-0.718233
-0.626539
-0.810371
-0.567856
-0.607555
-0.511927
-0.436008
-0.357953
-0.27857
-0.198751
-0.119356
-0.0398788
48.5044
48.5054
48.5125
48.5267
48.5487
48.5796
48.6225
48.672
48.7538
48.7793
48.9318
48.9474
49.0338
-0.728262
-0.635923
-0.819204
-0.575873
-0.614741
-0.518165
-0.44128
-0.362246
-0.281887
-0.201105
-0.120761
-0.0403448
48.5016
48.5022
48.5087
48.5224
48.5439
48.5745
48.6175
48.6682
48.7502
48.7811
48.9376
48.959
49.0487
-0.737307
-0.644317
-0.827068
-0.583036
-0.621151
-0.523736
-0.445988
-0.366079
-0.284849
-0.203207
-0.122015
-0.0407608
48.4996
48.4997
48.5056
48.5188
48.5398
48.5702
48.6132
48.665
48.7474
48.7832
48.9437
48.9702
49.0634
-0.745214
-0.651655
-0.83385
-0.589247
-0.626684
-0.528544
-0.450049
-0.369385
-0.287404
-0.20502
-0.123098
-0.0411196
48.4985
48.4978
48.5032
48.5158
48.5365
48.5666
48.6097
48.6625
48.7453
48.7852
48.9494
48.9805
49.077
-0.751876
-0.657702
-0.839398
-0.594361
-0.631226
-0.532498
-0.453391
-0.372107
-0.289507
-0.206513
-0.123988
-0.0414148
48.4987
48.4968
48.5014
48.5137
48.534
48.5639
48.607
48.6607
48.7438
48.7869
48.9545
48.9892
49.0886
-0.757183
-0.662573
-0.843645
-0.59834
-0.634718
-0.535535
-0.455957
-0.374195
-0.29112
-0.207657
-0.124671
-0.041641
48.4984
48.496
48.5002
48.5122
48.5324
48.5622
48.6053
48.6594
48.7429
48.7881
48.9583
48.9955
49.0974
-0.761053
-0.665775
-0.846491
-0.601035
-0.637082
-0.537585
-0.457695
-0.37561
-0.292213
-0.208433
-0.125134
-0.0417939
48.5044
48.4967
48.4998
48.5116
48.5316
48.5614
48.6045
48.6589
48.7426
48.7887
48.9622
48.9979
49.1026
-0.763432
-0.668155
-0.847856
-0.60253
-0.638298
-0.538616
-0.458583
-0.376331
-0.29277
-0.208827
-0.125368
-0.0418705
48.5851
48.582
48.5921
48.6118
48.6398
48.6747
48.7183
48.7479
48.847
48.7922
48.9587
48.9026
48.9646
-0.574877
-0.48817
-0.675562
-0.447238
-0.49715
-0.41642
-0.354749
-0.291386
-0.226832
-0.161836
-0.0972092
-0.0324913
48.5786
48.5801
48.5912
48.611
48.639
48.6739
48.7176
48.7474
48.8462
48.7934
48.9534
48.9015
48.9649
-0.575312
-0.488762
-0.677037
-0.448259
-0.498216
-0.417362
-0.355529
-0.292023
-0.227324
-0.162185
-0.0974184
-0.0325616
48.5757
48.578
48.5893
48.6093
48.6372
48.6721
48.7159
48.7462
48.8444
48.7938
48.9506
48.9005
48.9652
-0.577297
-0.491525
-0.679782
-0.450635
-0.500387
-0.419239
-0.357107
-0.293306
-0.228315
-0.162888
-0.097838
-0.0327011
48.5716
48.575
48.5867
48.6067
48.6346
48.6695
48.7132
48.7441
48.8415
48.7938
48.9467
48.8995
48.9652
-0.58097
-0.495233
-0.683833
-0.454108
-0.503612
-0.422021
-0.359456
-0.295217
-0.229791
-0.163935
-0.0984629
-0.0329085
48.5674
48.5714
48.5833
48.6033
48.6312
48.666
48.7096
48.7413
48.8376
48.7936
48.9419
48.8983
48.9647
-0.586163
-0.500677
-0.689146
-0.458788
-0.507865
-0.425688
-0.36255
-0.297732
-0.231733
-0.165313
-0.0992849
-0.0331811
48.5631
48.5673
48.5793
48.5992
48.6269
48.6616
48.7052
48.7377
48.8327
48.7925
48.937
48.8969
48.9638
-0.592761
-0.507218
-0.695631
-0.464515
-0.513069
-0.430183
-0.366345
-0.300819
-0.234116
-0.167003
-0.100293
-0.0335154
48.5584
48.5628
48.5747
48.5945
48.622
48.6565
48.6999
48.7334
48.8269
48.7901
48.9322
48.8952
48.9627
-0.600673
-0.515078
-0.703227
-0.471261
-0.51917
-0.435453
-0.370791
-0.304435
-0.236908
-0.168983
-0.101475
-0.033907
48.5535
48.5579
48.5697
48.5892
48.6164
48.6506
48.6939
48.7284
48.8203
48.7872
48.9271
48.8934
48.9615
-0.609761
-0.523969
-0.71181
-0.478913
-0.526077
-0.441424
-0.37583
-0.308532
-0.240071
-0.171226
-0.102813
-0.0343505
48.5483
48.5526
48.5642
48.5834
48.6102
48.6442
48.6873
48.7228
48.813
48.7838
48.9217
48.8915
48.9604
-0.619875
-0.533825
-0.721275
-0.487369
-0.533695
-0.448013
-0.381389
-0.313052
-0.24356
-0.173701
-0.10429
-0.0348399
48.543
48.5471
48.5584
48.5772
48.6036
48.6372
48.68
48.7166
48.805
48.7801
48.9162
48.8896
48.9596
-0.630863
-0.544483
-0.731481
-0.496505
-0.541918
-0.455127
-0.38739
-0.317931
-0.247327
-0.176372
-0.105883
-0.035368
48.5375
48.5414
48.5524
48.5708
48.5967
48.6298
48.6723
48.71
48.7966
48.7761
48.9108
48.8882
48.9593
-0.642556
-0.555784
-0.742279
-0.506184
-0.550624
-0.46266
-0.393746
-0.323099
-0.251316
-0.179201
-0.107571
-0.0359273
48.5319
48.5357
48.5462
48.5641
48.5894
48.6221
48.6643
48.703
48.7879
48.772
48.9057
48.8874
48.9598
-0.654775
-0.567553
-0.753509
-0.516261
-0.559683
-0.470501
-0.400361
-0.328478
-0.255468
-0.182145
-0.109327
-0.0365095
48.5264
48.5299
48.54
48.5573
48.5821
48.6143
48.6561
48.6959
48.779
48.7681
48.9012
48.8874
48.9614
-0.667331
-0.579605
-0.764997
-0.52658
-0.568958
-0.478529
-0.407134
-0.333985
-0.259719
-0.185159
-0.111126
-0.0371056
48.521
48.5243
48.5339
48.5506
48.5747
48.6064
48.6479
48.6887
48.7702
48.7645
48.8975
48.8888
48.9644
-0.680027
-0.59175
-0.776562
-0.536978
-0.578303
-0.486618
-0.41396
-0.339535
-0.264003
-0.188197
-0.112938
-0.0377064
48.5158
48.5188
48.5279
48.544
48.5674
48.5985
48.6397
48.6816
48.7617
48.7612
48.8948
48.8917
48.9691
-0.692659
-0.603796
-0.788019
-0.54729
-0.587567
-0.494639
-0.420729
-0.345039
-0.268252
-0.19121
-0.114736
-0.0383022
48.5109
48.5136
48.5222
48.5376
48.5603
48.5909
48.6317
48.6747
48.7536
48.7585
48.8933
48.8962
48.9756
-0.705023
-0.615545
-0.79918
-0.557346
-0.5966
-0.502461
-0.427331
-0.350408
-0.272396
-0.194149
-0.116489
-0.0388833
48.5064
48.5088
48.5169
48.5316
48.5536
48.5836
48.6242
48.6681
48.7461
48.7565
48.8932
48.902
48.9841
-0.716917
-0.626808
-0.80986
-0.566983
-0.605252
-0.509954
-0.433656
-0.355551
-0.276366
-0.196964
-0.118169
-0.03944
48.5023
48.5044
48.5119
48.526
48.5474
48.5768
48.6171
48.6621
48.7395
48.7551
48.8944
48.9089
48.9943
-0.728148
-0.637392
-0.819876
-0.576038
-0.613374
-0.516992
-0.439596
-0.360382
-0.280096
-0.199608
-0.119746
-0.039963
48.4988
48.5006
48.5075
48.521
48.5417
48.5706
48.6107
48.6566
48.7337
48.7543
48.8967
48.9171
49.0056
-0.73853
-0.647148
-0.82906
-0.584361
-0.620828
-0.523454
-0.445051
-0.364818
-0.28352
-0.202036
-0.121195
-0.0404432
48.496
48.4973
48.5037
48.5166
48.5367
48.5651
48.605
48.6518
48.7288
48.7541
48.8999
48.9255
49.0177
-0.74789
-0.655876
-0.83724
-0.591798
-0.627481
-0.529226
-0.449923
-0.368781
-0.286579
-0.204206
-0.122489
-0.0408722
48.494
48.4948
48.5005
48.5128
48.5324
48.5604
48.6002
48.6477
48.7248
48.7542
48.9034
48.9341
49.0297
-0.756078
-0.663501
-0.844293
-0.598247
-0.633223
-0.53421
-0.454128
-0.3722
-0.289219
-0.206077
-0.123606
-0.0412423
48.4929
48.4929
48.498
48.5098
48.5289
48.5566
48.5962
48.6444
48.7217
48.7546
48.9071
48.9419
49.0409
-0.76297
-0.66979
-0.850067
-0.603559
-0.637939
-0.538308
-0.457589
-0.375015
-0.291392
-0.207618
-0.124525
-0.0415468
48.493
48.4918
48.4962
48.5075
48.5262
48.5537
48.5932
48.642
48.7194
48.755
48.9104
48.9486
49.0505
-0.768459
-0.674848
-0.854488
-0.607689
-0.641565
-0.541458
-0.460246
-0.377175
-0.293059
-0.2088
-0.12523
-0.0417803
48.4928
48.4911
48.495
48.506
48.5245
48.5518
48.5912
48.6403
48.718
48.7554
48.913
48.9536
49.0576
-0.772463
-0.678179
-0.85745
-0.610487
-0.64402
-0.543584
-0.462047
-0.37864
-0.29419
-0.209602
-0.125708
-0.0419382
48.4987
48.4917
48.4945
48.5054
48.5237
48.5509
48.5903
48.6396
48.7174
48.7555
48.916
48.9564
49.0615
-0.774919
-0.680639
-0.858878
-0.612034
-0.645283
-0.544654
-0.462967
-0.379386
-0.294764
-0.21001
-0.12595
-0.0420174
48.5784
48.5763
48.5867
48.6064
48.6342
48.6688
48.7123
48.7421
48.8403
48.7873
48.9513
48.8973
48.96
-0.583058
-0.495918
-0.681838
-0.452772
-0.500028
-0.419121
-0.356171
-0.291924
-0.226797
-0.161514
-0.0968481
-0.0323057
48.5719
48.5745
48.5857
48.6056
48.6333
48.668
48.7115
48.7416
48.8394
48.7886
48.9453
48.8961
48.9603
-0.583555
-0.496576
-0.683377
-0.453849
-0.501141
-0.420102
-0.356982
-0.292584
-0.227307
-0.161875
-0.0970638
-0.0323781
48.5689
48.5723
48.5839
48.6038
48.6315
48.6662
48.7096
48.7402
48.8374
48.7891
48.942
48.8948
48.9606
-0.585655
-0.49949
-0.686259
-0.45634
-0.503408
-0.422058
-0.358623
-0.293916
-0.228334
-0.162602
-0.0974974
-0.032522
48.5648
48.5693
48.5812
48.6011
48.6288
48.6634
48.7068
48.7379
48.8341
48.7891
48.9372
48.8935
48.9603
-0.589526
-0.503412
-0.690509
-0.459983
-0.506775
-0.424958
-0.361065
-0.295899
-0.229863
-0.163685
-0.0981433
-0.0327362
48.5607
48.5656
48.5778
48.5977
48.6253
48.6597
48.703
48.7348
48.8297
48.7882
48.9319
48.8919
48.9594
-0.594993
-0.509148
-0.696088
-0.46489
-0.511218
-0.428782
-0.364284
-0.298511
-0.231876
-0.165111
-0.0989937
-0.0330179
48.5563
48.5615
48.5737
48.5935
48.6209
48.6551
48.6982
48.7308
48.8242
48.7859
48.9267
48.8898
48.9579
-0.601936
-0.516048
-0.702902
-0.470897
-0.516658
-0.433471
-0.368233
-0.301717
-0.234348
-0.166862
-0.100037
-0.0333637
48.5516
48.5569
48.5691
48.5886
48.6157
48.6497
48.6926
48.7259
48.8177
48.7826
48.9208
48.8871
48.9559
-0.610257
-0.52433
-0.710887
-0.477976
-0.523038
-0.438972
-0.372865
-0.305476
-0.237245
-0.168915
-0.101261
-0.0337689
48.5466
48.5519
48.5639
48.5832
48.6099
48.6436
48.6861
48.7203
48.8102
48.7785
48.9143
48.884
48.9534
-0.619817
-0.533707
-0.719916
-0.486009
-0.530267
-0.445208
-0.378115
-0.309737
-0.24053
-0.171241
-0.102648
-0.0342282
48.5414
48.5466
48.5583
48.5772
48.6035
48.6367
48.6789
48.7139
48.8018
48.7738
48.9072
48.8804
48.9507
-0.63046
-0.544103
-0.729878
-0.494891
-0.538246
-0.452096
-0.383913
-0.314443
-0.244156
-0.17381
-0.104179
-0.0347354
48.536
48.541
48.5524
48.5709
48.5966
48.6293
48.671
48.7067
48.7926
48.7684
48.8994
48.8765
48.9477
-0.642026
-0.555351
-0.740628
-0.504492
-0.546865
-0.459537
-0.390177
-0.319526
-0.248074
-0.176585
-0.105834
-0.0352832
48.5304
48.5352
48.5463
48.5642
48.5893
48.6215
48.6626
48.699
48.7828
48.7624
48.8913
48.8725
48.9447
-0.654337
-0.567281
-0.75201
-0.514672
-0.555997
-0.467423
-0.396816
-0.324914
-0.252227
-0.179526
-0.107587
-0.0358639
48.5248
48.5294
48.54
48.5573
48.5817
48.6132
48.6537
48.6909
48.7724
48.756
48.8829
48.8687
48.942
-0.66721
-0.579712
-0.763854
-0.525277
-0.565508
-0.475637
-0.403733
-0.330527
-0.256553
-0.18259
-0.109413
-0.0364688
48.5192
48.5235
48.5336
48.5503
48.574
48.6048
48.6446
48.6824
48.7616
48.7493
48.8746
48.8652
48.9397
-0.68044
-0.592448
-0.775977
-0.536143
-0.575253
-0.484055
-0.41082
-0.336279
-0.260986
-0.18573
-0.111285
-0.0370888
48.5138
48.5178
48.5273
48.5433
48.5662
48.5962
48.6354
48.6736
48.7507
48.7425
48.8667
48.8627
48.9382
-0.693822
-0.605288
-0.788191
-0.547099
-0.585079
-0.492543
-0.417968
-0.34208
-0.265457
-0.188897
-0.113173
-0.0377141
48.5085
48.5122
48.5212
48.5365
48.5585
48.5877
48.6262
48.6649
48.74
48.7359
48.8595
48.8612
48.9379
-0.70714
-0.618027
-0.800297
-0.55797
-0.594829
-0.500966
-0.425063
-0.347839
-0.269895
-0.19204
-0.115047
-0.0383348
48.5035
48.5069
48.5154
48.5299
48.5511
48.5794
48.6172
48.6563
48.7296
48.7296
48.8532
48.8603
48.9391
-0.720181
-0.630456
-0.812096
-0.568579
-0.604341
-0.509186
-0.431988
-0.35346
-0.274228
-0.195108
-0.116876
-0.0389407
48.4989
48.502
48.5099
48.5236
48.5439
48.5715
48.6085
48.6481
48.7198
48.7239
48.8482
48.8609
48.9419
-0.732725
-0.642375
-0.823393
-0.57875
-0.613458
-0.517066
-0.438627
-0.358849
-0.278381
-0.19805
-0.11863
-0.0395217
48.4948
48.4975
48.5048
48.5178
48.5373
48.564
48.6004
48.6403
48.7108
48.7188
48.8444
48.8625
48.9461
-0.744572
-0.653577
-0.833991
-0.58831
-0.622022
-0.524472
-0.444867
-0.363915
-0.282286
-0.200816
-0.120278
-0.0400678
48.4913
48.4936
48.5003
48.5125
48.5312
48.5572
48.593
48.6332
48.7027
48.7144
48.8419
48.8652
48.9516
-0.755516
-0.663902
-0.843713
-0.5971
-0.629886
-0.531275
-0.450599
-0.368569
-0.285873
-0.203356
-0.121793
-0.0405696
48.4884
48.4903
48.4963
48.5079
48.5258
48.5511
48.5863
48.6268
48.6957
48.7108
48.8405
48.8684
48.958
-0.765381
-0.673138
-0.852376
-0.604958
-0.636908
-0.537355
-0.455723
-0.372729
-0.28908
-0.205628
-0.123147
-0.0410182
48.4864
48.4877
48.4931
48.5039
48.5212
48.5459
48.5806
48.6214
48.6898
48.7079
48.8399
48.872
48.9646
-0.774014
-0.681204
-0.859847
-0.611771
-0.642972
-0.542607
-0.460147
-0.37632
-0.291849
-0.207588
-0.124316
-0.0414054
48.4852
48.4858
48.4905
48.5008
48.5175
48.5416
48.576
48.6169
48.685
48.7057
48.8398
48.8754
48.9709
-0.781279
-0.687857
-0.865964
-0.617383
-0.647953
-0.546926
-0.463789
-0.379278
-0.294128
-0.209203
-0.125279
-0.0417242
48.4853
48.4846
48.4886
48.4984
48.5147
48.5384
48.5724
48.6135
48.6814
48.7041
48.8401
48.8783
48.9762
-0.78706
-0.693194
-0.870651
-0.621745
-0.651785
-0.550248
-0.466586
-0.381549
-0.295878
-0.210443
-0.126017
-0.0419687
48.485
48.4839
48.4873
48.4968
48.5128
48.5362
48.57
48.6112
48.679
48.703
48.8403
48.8805
48.9799
-0.791272
-0.696717
-0.873791
-0.624701
-0.654378
-0.55249
-0.468481
-0.383088
-0.297065
-0.211283
-0.126518
-0.0421343
48.4909
48.4845
48.4868
48.4961
48.5119
48.5352
48.5689
48.6102
48.6778
48.7027
48.8412
48.8819
48.9818
-0.793844
-0.699274
-0.87531
-0.626325
-0.655713
-0.553618
-0.46945
-0.383873
-0.297669
-0.211711
-0.126773
-0.0422175
48.5708
48.5692
48.5796
48.5992
48.6267
48.6611
48.7042
48.7344
48.8313
48.7805
48.9416
48.8901
48.9534
-0.594316
-0.50639
-0.690068
-0.460097
-0.503738
-0.422548
-0.357905
-0.292492
-0.226626
-0.160988
-0.0963045
-0.0320355
48.5643
48.5673
48.5787
48.5984
48.6259
48.6602
48.7033
48.7337
48.8303
48.7819
48.9351
48.8888
48.9537
-0.594885
-0.507137
-0.691692
-0.461249
-0.504913
-0.423581
-0.358757
-0.293184
-0.227158
-0.161364
-0.0965289
-0.0321105
48.5613
48.5651
48.5768
48.5965
48.624
48.6583
48.7013
48.7321
48.8279
48.7825
48.931
48.8872
48.9538
-0.597152
-0.510254
-0.694755
-0.463896
-0.507307
-0.425642
-0.360481
-0.294579
-0.228232
-0.162123
-0.0969808
-0.0322603
48.5572
48.562
48.5741
48.5938
48.6212
48.6553
48.6983
48.7296
48.8242
48.782
48.9257
48.8855
48.9531
-0.601298
-0.514466
-0.699277
-0.467768
-0.510866
-0.4287
-0.363049
-0.296659
-0.229832
-0.163255
-0.0976547
-0.0324834
48.553
48.5584
48.5706
48.5903
48.6174
48.6514
48.6941
48.726
48.8192
48.7799
48.9201
48.8832
48.9515
-0.607142
-0.5206
-0.705217
-0.472983
-0.515564
-0.432734
-0.366434
-0.299399
-0.23194
-0.164746
-0.0985425
-0.0327773
48.5485
48.5542
48.5665
48.5859
48.6129
48.6465
48.689
48.7215
48.813
48.7766
48.9138
48.8801
48.949
-0.614562
-0.527986
-0.712476
-0.479369
-0.521321
-0.437684
-0.370591
-0.302764
-0.234529
-0.166577
-0.0996331
-0.0331381
48.5438
48.5495
48.5617
48.5809
48.6075
48.6408
48.6828
48.7159
48.8055
48.7721
48.9065
48.8761
48.9457
-0.623457
-0.536845
-0.720988
-0.486896
-0.528077
-0.443494
-0.375469
-0.306713
-0.237567
-0.168726
-0.100913
-0.0335615
48.5387
48.5444
48.5564
48.5753
48.6014
48.6342
48.6757
48.7094
48.7969
48.7666
48.898
48.8711
48.9414
-0.633676
-0.546882
-0.730622
-0.495445
-0.535739
-0.450088
-0.381004
-0.311194
-0.241014
-0.171164
-0.102364
-0.0340418
48.5334
48.539
48.5507
48.5691
48.5946
48.6269
48.6678
48.7019
48.7871
48.76
48.8884
48.8651
48.9362
-0.645056
-0.558012
-0.74126
-0.504903
-0.544206
-0.457376
-0.387122
-0.316147
-0.244824
-0.173858
-0.103969
-0.0345727
48.528
48.5333
48.5446
48.5625
48.5874
48.6189
48.6591
48.6936
48.7762
48.7523
48.8775
48.8582
48.93
-0.657427
-0.570062
-0.752749
-0.515136
-0.553359
-0.465257
-0.393738
-0.321504
-0.248944
-0.176772
-0.105704
-0.0351468
48.5223
48.5274
48.5383
48.5556
48.5797
48.6104
48.6497
48.6845
48.7644
48.7435
48.8655
48.8504
48.9229
-0.670603
-0.582852
-0.764924
-0.525995
-0.563068
-0.47362
-0.400759
-0.327188
-0.253316
-0.179864
-0.107545
-0.035756
48.5166
48.5214
48.5318
48.5484
48.5716
48.6015
48.6397
48.6747
48.7517
48.7337
48.8524
48.8419
48.915
-0.684384
-0.596185
-0.777604
-0.537316
-0.573191
-0.482339
-0.408081
-0.333116
-0.257875
-0.183088
-0.109465
-0.0363914
48.511
48.5155
48.5253
48.5411
48.5634
48.5922
48.6294
48.6643
48.7383
48.7231
48.8387
48.8331
48.9064
-0.698556
-0.609854
-0.790596
-0.548926
-0.583574
-0.491283
-0.415593
-0.339198
-0.262553
-0.186396
-0.111435
-0.0370433
48.5054
48.5096
48.5188
48.5338
48.5551
48.5829
48.6189
48.6535
48.7246
48.7118
48.8246
48.8242
48.8977
-0.712895
-0.623642
-0.803694
-0.560642
-0.594054
-0.500313
-0.423177
-0.345339
-0.267277
-0.189737
-0.113424
-0.0377016
48.5
48.5039
48.5125
48.5266
48.5469
48.5735
48.6083
48.6426
48.7107
48.7003
48.8106
48.8148
48.8891
-0.727175
-0.637329
-0.816686
-0.572277
-0.604462
-0.509282
-0.430713
-0.351441
-0.27197
-0.193056
-0.115401
-0.0383559
48.495
48.4985
48.5065
48.5197
48.5389
48.5643
48.5978
48.6317
48.697
48.6888
48.7972
48.8059
48.8811
-0.741157
-0.650689
-0.829358
-0.583639
-0.614627
-0.518043
-0.438076
-0.357404
-0.276557
-0.196299
-0.117332
-0.0389952
48.4903
48.4935
48.5008
48.5131
48.5312
48.5555
48.5877
48.6211
48.6838
48.6777
48.7848
48.7976
48.8741
-0.754614
-0.663505
-0.841498
-0.594538
-0.624378
-0.526449
-0.445141
-0.363127
-0.280959
-0.199412
-0.119186
-0.0396088
48.4861
48.4889
48.4955
48.507
48.5241
48.5472
48.5782
48.611
48.6713
48.6673
48.7737
48.7902
48.8683
-0.767319
-0.675553
-0.852894
-0.604788
-0.633544
-0.534356
-0.451788
-0.368511
-0.285101
-0.202341
-0.120931
-0.0401863
48.4825
48.4849
48.4908
48.5015
48.5175
48.5395
48.5694
48.6016
48.6599
48.6577
48.764
48.7837
48.8637
-0.77906
-0.686656
-0.863353
-0.614217
-0.641967
-0.541624
-0.457899
-0.373461
-0.28891
-0.205034
-0.122535
-0.0407172
48.4796
48.4815
48.4868
48.4966
48.5117
48.5327
48.5615
48.5932
48.6498
48.6493
48.7557
48.7782
48.8601
-0.789642
-0.69659
-0.872676
-0.622648
-0.649493
-0.548124
-0.463364
-0.377889
-0.292317
-0.207444
-0.12397
-0.0411923
48.4775
48.4788
48.4834
48.4924
48.5067
48.5268
48.5547
48.5858
48.6411
48.642
48.7486
48.7735
48.857
-0.7989
-0.705259
-0.88072
-0.629959
-0.655996
-0.553741
-0.468086
-0.381715
-0.29526
-0.209525
-0.12521
-0.0416027
48.4762
48.4768
48.4807
48.4891
48.5026
48.522
48.5491
48.5798
48.6339
48.6359
48.7428
48.7692
48.8542
-0.806686
-0.71241
-0.887308
-0.635981
-0.661339
-0.558363
-0.471975
-0.384867
-0.297685
-0.211241
-0.126231
-0.0419409
48.4763
48.4756
48.4787
48.4865
48.4995
48.5183
48.5448
48.5751
48.6283
48.6312
48.7382
48.7654
48.8514
-0.812876
-0.718127
-0.892357
-0.64066
-0.665451
-0.561917
-0.474963
-0.387287
-0.299547
-0.212558
-0.127016
-0.0422004
48.476
48.4749
48.4774
48.4849
48.4975
48.5158
48.5419
48.572
48.6245
48.6281
48.7347
48.7623
48.8486
-0.817376
-0.721914
-0.895742
-0.643831
-0.668235
-0.564318
-0.476988
-0.388929
-0.300811
-0.213452
-0.127548
-0.0423763
48.4818
48.4755
48.4769
48.4841
48.4965
48.5147
48.5405
48.5705
48.6225
48.6268
48.7336
48.7594
48.8465
-0.820114
-0.724605
-0.897388
-0.645563
-0.669667
-0.565526
-0.478023
-0.389766
-0.301454
-0.213907
-0.127819
-0.042465
48.562
48.5607
48.5711
48.5904
48.6175
48.6515
48.6941
48.7247
48.8201
48.7721
48.9296
48.881
48.9448
-0.608665
-0.519601
-0.700222
-0.469207
-0.508234
-0.426607
-0.359861
-0.293006
-0.226246
-0.160207
-0.0955469
-0.0316699
48.5555
48.5588
48.5701
48.5895
48.6166
48.6505
48.6932
48.7239
48.8189
48.7738
48.9224
48.8796
48.9451
-0.60932
-0.520459
-0.701956
-0.470453
-0.509487
-0.427706
-0.360765
-0.293736
-0.226807
-0.160602
-0.0957818
-0.0317481
48.5525
48.5566
48.5682
48.5876
48.6147
48.6485
48.691
48.7221
48.8161
48.7738
48.918
48.8777
48.9449
-0.611801
-0.523839
-0.70525
-0.473297
-0.512043
-0.429899
-0.362592
-0.295211
-0.227938
-0.161401
-0.0962564
-0.0319051
48.5483
48.5534
48.5654
48.5848
48.6117
48.6453
48.6877
48.7192
48.8119
48.7722
48.9125
48.8755
48.9437
-0.616302
-0.528421
-0.710117
-0.477459
-0.515842
-0.433155
-0.365316
-0.29741
-0.229626
-0.162592
-0.0969649
-0.0321394
48.5441
48.5497
48.5619
48.5812
48.6078
48.6411
48.6831
48.7151
48.8062
48.7691
48.9061
48.8722
48.9412
-0.622638
-0.535063
-0.716515
-0.483062
-0.520862
-0.437451
-0.368909
-0.300309
-0.231851
-0.164163
-0.097899
-0.0324481
48.5396
48.5454
48.5576
48.5767
48.603
48.6359
48.6775
48.7099
48.7991
48.7646
48.8984
48.8678
48.9374
-0.630678
-0.543073
-0.724341