/*--------------------------------*- C++ -*----------------------------------*\
| =========                 |                                                 |
| \\      /  F ield         | OpenFOAM: The Open Source CFD Toolbox           |
|  \\    /   O peration     | Version:  2306                                  |
|   \\  /    A nd           | Website:  www.openfoam.com                      |
|    \\/     M anipulation  |                                                 |
\*---------------------------------------------------------------------------*/
FoamFile
{
    version     2.0;
    format      ascii;
    arch        "LSB;label=32;scalar=64";
    class       volScalarField;
    location    "1.6";
    object      p;
}
// * * * * * * * * * * * * * * * * * * * * * * * * * * * * * * * * * * * * * //

dimensions      [0 2 -2 0 0 0 0];

internalField   nonuniform List<scalar> 
288632
(
42.3672
42.3589
42.3674
42.3866
42.414
42.4484
42.49
42.5251
42.6287
42.5151
42.7809
42.6345
42.7254
-0.0945708
0.00694106
-0.305492
-0.0528783
-0.144618
-0.123352
-0.102918
-0.0834508
-0.0643161
-0.0455416
-0.0275143
-0.00931702
42.3609
42.3571
42.3665
42.3858
42.4132
42.4477
42.4893
42.5246
42.6278
42.5147
42.78
42.6333
42.7252
-0.0949266
0.00748757
-0.306586
-0.053144
-0.145086
-0.123859
-0.103443
-0.0839098
-0.0646745
-0.0457907
-0.0276713
-0.00937271
42.3576
42.3548
42.3646
42.384
42.4114
42.446
42.4877
42.5234
42.6257
42.5145
42.7783
42.6321
42.7251
-0.0965348
0.00446754
-0.308874
-0.0562112
-0.147106
-0.125341
-0.104626
-0.0848643
-0.0654138
-0.0463181
-0.0279846
-0.00947652
42.3535
42.3517
42.3618
42.3813
42.4088
42.4434
42.4853
42.5214
42.6225
42.5141
42.7754
42.6312
42.7249
-0.0991774
0.00335399
-0.31142
-0.0571092
-0.149092
-0.127347
-0.106363
-0.0862842
-0.0665137
-0.0471014
-0.0284501
-0.0096313
42.3493
42.3479
42.3583
42.3779
42.4054
42.44
42.482
42.5188
42.6183
42.5133
42.7717
42.6299
42.7242
-0.103087
-0.0026408
-0.31564
-0.0610612
-0.152274
-0.13006
-0.108654
-0.088153
-0.06796
-0.0481287
-0.0290601
-0.00983463
42.3447
42.3436
42.3542
42.3737
42.4011
42.4358
42.4779
42.5156
42.6131
42.5125
42.7673
42.6285
42.7234
-0.106771
-0.00528648
-0.320151
-0.0652502
-0.156086
-0.133385
-0.111467
-0.0904457
-0.0697335
-0.0493889
-0.029823
-0.0100845
42.3398
42.3388
42.3494
42.3688
42.3962
42.4308
42.4731
42.5117
42.6071
42.5116
42.7622
42.627
42.7225
-0.112611
-0.0114889
-0.325703
-0.0702516
-0.160564
-0.137284
-0.114763
-0.0931312
-0.0718103
-0.0508636
-0.0307009
-0.0103759
42.3346
42.3336
42.3441
42.3634
42.3905
42.4251
42.4676
42.5072
42.6003
42.5108
42.7566
42.6256
42.7218
-0.119273
-0.0180163
-0.331978
-0.0759044
-0.16563
-0.141701
-0.118496
-0.0961727
-0.0741617
-0.0525329
-0.0316963
-0.0107055
42.3291
42.3281
42.3384
42.3574
42.3844
42.4188
42.4614
42.5022
42.5928
42.51
42.751
42.6245
42.7215
-0.126716
-0.0252802
-0.338913
-0.0821543
-0.171219
-0.146574
-0.122616
-0.0995273
-0.0767548
-0.0543735
-0.0327945
-0.0110725
42.3234
42.3222
42.3323
42.3511
42.3777
42.4121
42.4548
42.4968
42.5849
42.5086
42.7464
42.6241
42.722
-0.134826
-0.0331218
-0.346396
-0.0889127
-0.177253
-0.151835
-0.127061
-0.103147
-0.0795525
-0.056359
-0.0339794
-0.011465
42.3175
42.3162
42.326
42.3444
42.3707
42.4049
42.4478
42.491
42.5767
42.5067
42.7433
42.6246
42.7235
-0.143475
-0.0414393
-0.354318
-0.0960796
-0.183643
-0.157407
-0.131769
-0.10698
-0.0825138
-0.0584605
-0.0352333
-0.0118805
42.3116
42.3101
42.3196
42.3375
42.3634
42.3974
42.4404
42.4849
42.5685
42.5057
42.7407
42.6264
42.7265
-0.152527
-0.050109
-0.362562
-0.103547
-0.190297
-0.163207
-0.136668
-0.110967
-0.0855945
-0.0606465
-0.0365376
-0.0123126
42.3057
42.304
42.313
42.3305
42.356
42.3897
42.4329
42.4788
42.5605
42.5057
42.7392
42.6298
42.7314
-0.161852
-0.0590006
-0.371001
-0.1112
-0.197112
-0.169146
-0.141684
-0.115049
-0.0887476
-0.0628835
-0.0378722
-0.0127548
42.2999
42.298
42.3066
42.3236
42.3486
42.382
42.4254
42.4726
42.553
42.5065
42.7391
42.6351
42.7384
-0.171296
-0.0679751
-0.379508
-0.118919
-0.203983
-0.175131
-0.146738
-0.119162
-0.0919237
-0.0651364
-0.0392163
-0.0132001
42.2943
42.2922
42.3003
42.3168
42.3412
42.3744
42.4179
42.4666
42.5462
42.5085
42.7406
42.6426
42.7478
-0.180721
-0.0768957
-0.387944
-0.12658
-0.2108
-0.181067
-0.15175
-0.123239
-0.0950723
-0.0673693
-0.0405483
-0.0136414
42.2891
42.2866
42.2943
42.3102
42.3341
42.367
42.4107
42.4609
42.5402
42.5115
42.7439
42.6524
42.7597
-0.189963
-0.0856146
-0.396172
-0.13406
-0.217451
-0.186858
-0.156638
-0.127215
-0.0981422
-0.0695465
-0.041847
-0.0140716
42.2842
42.2815
42.2887
42.304
42.3274
42.36
42.4038
42.4555
42.5352
42.5156
42.749
42.6644
42.7742
-0.198882
-0.0939928
-0.404056
-0.141236
-0.223825
-0.192407
-0.161321
-0.131023
-0.101082
-0.0716317
-0.0430907
-0.0144837
42.2798
42.2768
42.2835
42.2982
42.3211
42.3534
42.3975
42.4506
42.5311
42.5205
42.7557
42.6784
42.7911
-0.207317
-0.101886
-0.411458
-0.147987
-0.229813
-0.197619
-0.16572
-0.1346
-0.103844
-0.0735893
-0.0442582
-0.0148705
42.276
42.2727
42.2788
42.293
42.3154
42.3474
42.3917
42.4463
42.5279
42.5262
42.7637
42.6937
42.8096
-0.215142
-0.109198
-0.418252
-0.154203
-0.235313
-0.202407
-0.169759
-0.137885
-0.106378
-0.0753865
-0.04533
-0.0152255
42.273
42.2692
42.2748
42.2884
42.3103
42.3421
42.3867
42.4425
42.5256
42.5322
42.7726
42.71
42.8289
-0.22222
-0.115732
-0.424308
-0.159766
-0.240225
-0.206686
-0.173368
-0.140818
-0.108643
-0.0769917
-0.0462872
-0.0155425
42.2707
42.2664
42.2714
42.2845
42.306
42.3376
42.3824
42.4395
42.5241
42.5382
42.7816
42.7259
42.8478
-0.228442
-0.12155
-0.429534
-0.164614
-0.244471
-0.210381
-0.176484
-0.14335
-0.110596
-0.0783764
-0.0471128
-0.0158159
42.2694
42.2644
42.2688
42.2814
42.3025
42.3339
42.3789
42.437
42.5231
42.5436
42.7901
42.7405
42.8653
-0.233701
-0.126262
-0.433807
-0.168588
-0.247959
-0.21342
-0.179048
-0.145435
-0.112205
-0.0795162
-0.0477922
-0.0160407
42.2693
42.2631
42.2669
42.2791
42.2999
42.3311
42.3763
42.4353
42.5226
42.5482
42.7975
42.7527
42.8804
-0.237931
-0.130268
-0.437076
-0.171738
-0.250645
-0.21576
-0.181018
-0.147035
-0.113439
-0.0803906
-0.0483133
-0.0162129
42.2693
42.2625
42.2657
42.2775
42.2981
42.3293
42.3746
42.4342
42.5224
42.5516
42.8028
42.7617
42.892
-0.241052
-0.132758
-0.439255
-0.173825
-0.252461
-0.217338
-0.182353
-0.14812
-0.114276
-0.0809837
-0.0486664
-0.0163294
42.2747
42.2629
42.2652
42.2769
42.2973
42.3285
42.3738
42.4337
42.5225
42.5537
42.8064
42.7663
42.8997
-0.243082
-0.134976
-0.440258
-0.175055
-0.253396
-0.218142
-0.183037
-0.148674
-0.114702
-0.0812856
-0.0488453
-0.0163876
42.3603
42.3563
42.3657
42.3849
42.4123
42.4467
42.4883
42.5234
42.6265
42.5133
42.7785
42.6321
42.7242
-0.0956084
0.00632086
-0.306689
-0.0541786
-0.145072
-0.123827
-0.10318
-0.083544
-0.0642862
-0.0454485
-0.0274232
-0.00927308
42.354
42.3545
42.3647
42.3841
42.4115
42.4459
42.4876
42.5229
42.6256
42.514
42.774
42.6309
42.7241
-0.0959006
0.00683188
-0.307797
-0.0545166
-0.145573
-0.124409
-0.103718
-0.0839958
-0.0646471
-0.0457078
-0.0275827
-0.00932915
42.3507
42.3522
42.3628
42.3823
42.4097
42.4442
42.4859
42.5216
42.6234
42.514
42.7715
42.6297
42.7242
-0.0975172
0.00377144
-0.310204
-0.0573596
-0.147912
-0.125925
-0.104923
-0.0849687
-0.065397
-0.0462378
-0.0278998
-0.00943429
42.3466
42.3491
42.36
42.3796
42.4071
42.4416
42.4834
42.5197
42.6201
42.5136
42.768
42.6285
42.7239
-0.100166
0.00245009
-0.312657
-0.0585643
-0.149586
-0.127927
-0.10668
-0.0864085
-0.0665113
-0.0470342
-0.0283718
-0.00959095
42.3423
42.3453
42.3565
42.3761
42.4036
42.4381
42.48
42.5169
42.6157
42.5128
42.7638
42.6272
42.7232
-0.103786
-0.00364605
-0.317091
-0.0626438
-0.152926
-0.130684
-0.109003
-0.0883027
-0.0679762
-0.0480727
-0.028992
-0.00979674
42.3378
42.341
42.3523
42.3719
42.3993
42.4338
42.4758
42.5135
42.6103
42.5119
42.7587
42.6256
42.7223
-0.108105
-0.00598181
-0.321626
-0.066842
-0.15681
-0.134062
-0.111857
-0.0906266
-0.0697727
-0.0493477
-0.0297548
-0.0100492
42.3328
42.3362
42.3475
42.367
42.3942
42.4287
42.4709
42.5095
42.604
42.5111
42.7528
42.6238
42.7213
-0.113879
-0.0124704
-0.327274
-0.0719001
-0.161357
-0.13802
-0.1152
-0.0933491
-0.0718769
-0.0508412
-0.0306484
-0.0103444
42.3276
42.3309
42.3422
42.3615
42.3885
42.4229
42.4652
42.5047
42.5969
42.5101
42.7466
42.6221
42.7204
-0.120629
-0.0191733
-0.333663
-0.0776423
-0.166503
-0.142505
-0.118989
-0.0964331
-0.0742598
-0.0525322
-0.0316566
-0.0106786
42.3221
42.3254
42.3364
42.3555
42.3822
42.4165
42.4588
42.4995
42.589
42.5081
42.7413
42.6207
42.7198
-0.128179
-0.0265803
-0.340723
-0.0839994
-0.172184
-0.147455
-0.12317
-0.0998357
-0.0768884
-0.0543972
-0.0327691
-0.0110481
42.3164
42.3195
42.3303
42.349
42.3755
42.4096
42.452
42.4937
42.5807
42.5058
42.7366
42.6197
42.7199
-0.136407
-0.03457
-0.348343
-0.090877
-0.178318
-0.1528
-0.127683
-0.103508
-0.079725
-0.0564095
-0.0339695
-0.011447
42.3105
42.3135
42.324
42.3423
42.3683
42.4022
42.4447
42.4875
42.572
42.5037
42.7324
42.6197
42.721
-0.145185
-0.0430462
-0.356412
-0.0981732
-0.184817
-0.158462
-0.132463
-0.107397
-0.0827283
-0.0585398
-0.0352402
-0.011868
42.3046
42.3073
42.3174
42.3353
42.3609
42.3945
42.437
42.481
42.5632
42.5021
42.7288
42.6207
42.7235
-0.154378
-0.0518846
-0.364811
-0.105777
-0.191587
-0.164357
-0.137439
-0.111445
-0.0858536
-0.0607563
-0.0365623
-0.0123058
42.2987
42.3012
42.3109
42.3282
42.3534
42.3866
42.4292
42.4744
42.5546
42.5012
42.7263
42.6233
42.7277
-0.163842
-0.060951
-0.373413
-0.113572
-0.198522
-0.170396
-0.142536
-0.115589
-0.089053
-0.0630251
-0.0379155
-0.012754
42.2928
42.2951
42.3044
42.3212
42.3458
42.3787
42.4213
42.4677
42.5465
42.5012
42.7251
42.6278
42.734
-0.173437
-0.0701075
-0.382084
-0.121436
-0.205516
-0.176484
-0.147672
-0.119765
-0.0922767
-0.0653108
-0.0392786
-0.0132055
42.2872
42.2892
42.298
42.3143
42.3383
42.3708
42.4134
42.4611
42.5389
42.5021
42.7255
42.6343
42.7427
-0.183008
-0.0792059
-0.390687
-0.129242
-0.212457
-0.182523
-0.152767
-0.123907
-0.0954732
-0.067577
-0.0406301
-0.0136532
42.2819
42.2836
42.292
42.3076
42.331
42.3632
42.4058
42.4548
42.5322
42.5041
42.7276
42.6431
42.7539
-0.192399
-0.0881009
-0.39908
-0.136866
-0.219231
-0.188415
-0.157737
-0.127947
-0.0985907
-0.069787
-0.0419479
-0.0140896
42.277
42.2785
42.2863
42.3013
42.3241
42.3559
42.3986
42.4488
42.5264
42.5071
42.7315
42.654
42.7676
-0.201451
-0.096651
-0.407124
-0.144182
-0.225724
-0.194063
-0.1625
-0.131818
-0.101578
-0.0719039
-0.0432101
-0.0145077
42.2726
42.2737
42.281
42.2954
42.3177
42.3491
42.3919
42.4433
42.5216
42.5111
42.737
42.667
42.7837
-0.210024
-0.104706
-0.414677
-0.151065
-0.231826
-0.19937
-0.166975
-0.135455
-0.104383
-0.0738921
-0.0443954
-0.0149002
42.2688
42.2696
42.2763
42.2901
42.3118
42.3429
42.3858
42.4384
42.5177
42.5157
42.7439
42.6815
42.8016
-0.217973
-0.112168
-0.421613
-0.157403
-0.237433
-0.204246
-0.171086
-0.138795
-0.106959
-0.0757175
-0.0454837
-0.0152606
42.2657
42.2661
42.2722
42.2855
42.3066
42.3374
42.3804
42.4342
42.5148
42.5207
42.7517
42.6966
42.8203
-0.225167
-0.118836
-0.427795
-0.163077
-0.24244
-0.208603
-0.174759
-0.141779
-0.109261
-0.0773483
-0.0464558
-0.0155824
42.2635
42.2633
42.2689
42.2815
42.3022
42.3327
42.3758
42.4307
42.5127
42.5258
42.7599
42.7115
42.8388
-0.231481
-0.12477
-0.433132
-0.16802
-0.246769
-0.212368
-0.17793
-0.144354
-0.111247
-0.0787553
-0.0472945
-0.01586
42.2621
42.2613
42.2662
42.2783
42.2986
42.3288
42.3721
42.4279
42.5113
42.5305
42.7676
42.7249
42.856
-0.236825
-0.129578
-0.437496
-0.172074
-0.250325
-0.215464
-0.180541
-0.146475
-0.112882
-0.0799136
-0.0479847
-0.0160884
42.262
42.26
42.2642
42.276
42.2959
42.3259
42.3693
42.4258
42.5104
42.5345
42.7744
42.7364
42.8708
-0.24112
-0.133653
-0.440836
-0.175284
-0.253064
-0.217847
-0.182546
-0.148103
-0.114137
-0.0808023
-0.0485141
-0.0162633
42.262
42.2593
42.263
42.2744
42.2941
42.324
42.3674
42.4245
42.5099
42.5374
42.7796
42.7452
42.8822
-0.244291
-0.136197
-0.443061
-0.177413
-0.254916
-0.219454
-0.183905
-0.149207
-0.114988
-0.081405
-0.0488729
-0.0163817
42.2674
42.2598
42.2625
42.2737
42.2933
42.3232
42.3666
42.4239
42.5098
42.5388
42.7842
42.7496
42.8893
-0.246352
-0.138419
-0.444087
-0.17866
-0.255867
-0.22027
-0.1846
-0.149769
-0.115421
-0.0817116
-0.0490545
-0.0164407
42.3553
42.3525
42.3622
42.3815
42.4087
42.4431
42.4845
42.5198
42.622
42.5102
42.7739
42.6282
42.7215
-0.0978598
0.00326057
-0.308749
-0.0566894
-0.145853
-0.124544
-0.103465
-0.0835097
-0.0640615
-0.0451505
-0.0271631
-0.00915387
42.349
42.3506
42.3612
42.3806
42.4079
42.4423
42.4838
42.5192
42.6209
42.5111
42.7686
42.6269
42.7215
-0.0981569
0.00375685
-0.309828
-0.0570982
-0.146481
-0.125224
-0.104046
-0.0839888
-0.0644373
-0.045419
-0.0273262
-0.00921064
42.3457
42.3483
42.3593
42.3788
42.4061
42.4405
42.4821
42.5179
42.6186
42.5113
42.7655
42.6255
42.7216
-0.0998319
0.000632249
-0.312714
-0.0596824
-0.148641
-0.126786
-0.105277
-0.0849821
-0.0652043
-0.0459629
-0.027651
-0.0093183
42.3416
42.3451
42.3565
42.376
42.4034
42.4378
42.4794
42.5158
42.6151
42.5108
42.7613
42.6242
42.7213
-0.102573
-0.00084941
-0.314525
-0.0611622
-0.150577
-0.128765
-0.107073
-0.0864586
-0.066346
-0.046774
-0.0281342
-0.00947857
42.3373
42.3413
42.3529
42.3725
42.3998
42.4341
42.4759
42.5128
42.6104
42.5099
42.7564
42.6224
42.7204
-0.106261
-0.00675327
-0.319731
-0.0658234
-0.154059
-0.131643
-0.109465
-0.0884029
-0.0678478
-0.0478393
-0.0287696
-0.00968913
42.3327
42.337
42.3487
42.3682
42.3954
42.4297
42.4714
42.5091
42.6045
42.5088
42.7504
42.6204
42.7191
-0.110741
-0.00982123
-0.324269
-0.0698929
-0.158016
-0.135126
-0.1124
-0.0907889
-0.0696903
-0.0491459
-0.0295493
-0.00994732
42.3277
42.3321
42.3438
42.3632
42.3902
42.4244
42.4662
42.5046
42.5977
42.5077
42.7432
42.6181
42.7176
-0.116799
-0.0163714
-0.330084
-0.0750693
-0.162692
-0.139203
-0.115839
-0.0935852
-0.0718491
-0.0506768
-0.0304629
-0.0102496
42.3225
42.3268
42.3384
42.3575
42.3843
42.4183
42.4601
42.4995
42.5899
42.5055
42.7364
42.6157
42.716
-0.123788
-0.0232905
-0.336699
-0.0810009
-0.168
-0.143824
-0.119737
-0.0967542
-0.074295
-0.052411
-0.0314975
-0.0105918
42.3169
42.3212
42.3325
42.3514
42.3778
42.4116
42.4534
42.4936
42.5812
42.5021
42.7302
42.6134
42.7145
-0.131595
-0.0309535
-0.344009
-0.0875774
-0.173864
-0.148927
-0.12404
-0.100252
-0.0769943
-0.0543246
-0.0326386
-0.0109693
42.3111
42.3153
42.3263
42.3448
42.3708
42.4043
42.446
42.4871
42.5719
42.4988
42.7238
42.6113
42.7134
-0.140105
-0.0392383
-0.351903
-0.094697
-0.180201
-0.154439
-0.128689
-0.10403
-0.0799087
-0.0563905
-0.0338703
-0.0113796
42.3052
42.3092
42.3199
42.3379
42.3634
42.3966
42.4381
42.4801
42.5622
42.4955
42.7175
42.6097
42.7131
-0.149187
-0.0480353
-0.360268
-0.102253
-0.18692
-0.160283
-0.133615
-0.108032
-0.0829962
-0.0585785
-0.0351747
-0.0118113
42.2992
42.3029
42.3132
42.3308
42.3558
42.3885
42.4299
42.4727
42.5522
42.4925
42.7117
42.609
42.7137
-0.158702
-0.0572155
-0.36898
-0.110132
-0.193921
-0.166371
-0.138746
-0.1122
-0.0862108
-0.0608562
-0.0365323
-0.0122606
42.2932
42.2967
42.3066
42.3235
42.3479
42.3802
42.4213
42.4651
42.5424
42.4899
42.7066
42.6095
42.7158
-0.168504
-0.0666384
-0.377909
-0.118213
-0.201099
-0.17261
-0.144004
-0.11647
-0.0895034
-0.0631889
-0.0379227
-0.0127209
42.2873
42.2906
42.2999
42.3163
42.34
42.3717
42.4127
42.4573
42.5328
42.488
42.7027
42.6116
42.7197
-0.17844
-0.0761574
-0.386916
-0.126369
-0.208342
-0.178904
-0.149306
-0.120775
-0.0928227
-0.0655404
-0.0393242
-0.0131848
42.2817
42.2846
42.2935
42.3092
42.3322
42.3634
42.4041
42.4496
42.5237
42.4869
42.7002
42.6157
42.7258
-0.188353
-0.0856218
-0.395856
-0.13447
-0.215533
-0.18515
-0.154568
-0.125047
-0.096116
-0.0678731
-0.0407143
-0.013645
42.2763
42.279
42.2873
42.3023
42.3247
42.3552
42.3957
42.442
42.5154
42.4868
42.6993
42.6219
42.7342
-0.198083
-0.0948775
-0.404583
-0.142385
-0.222556
-0.191249
-0.159705
-0.129217
-0.0993299
-0.070149
-0.0420706
-0.0140939
42.2713
42.2737
42.2815
42.2958
42.3174
42.3474
42.3877
42.4348
42.5081
42.4876
42.7003
42.6303
42.7452
-0.207467
-0.103776
-0.41295
-0.149982
-0.229291
-0.197098
-0.16463
-0.133214
-0.10241
-0.0723302
-0.0433703
-0.0145241
42.2669
42.2689
42.2761
42.2897
42.3107
42.3402
42.3802
42.4281
42.5017
42.4893
42.703
42.6408
42.7584
-0.216357
-0.112162
-0.420811
-0.157133
-0.235624
-0.202596
-0.169259
-0.136971
-0.105305
-0.0743797
-0.0445914
-0.0149282
42.263
42.2647
42.2713
42.2843
42.3046
42.3335
42.3734
42.4221
42.4963
42.4918
42.7072
42.6527
42.7734
-0.224602
-0.119931
-0.428032
-0.16372
-0.241444
-0.207649
-0.173513
-0.140422
-0.107964
-0.076262
-0.0457127
-0.0152993
42.2599
42.2611
42.2672
42.2795
42.2991
42.3276
42.3673
42.4168
42.492
42.4949
42.7125
42.6656
42.7895
-0.23206
-0.126878
-0.434472
-0.169617
-0.246644
-0.212166
-0.177316
-0.143507
-0.11034
-0.0779444
-0.046715
-0.015631
42.2576
42.2583
42.2637
42.2754
42.2945
42.3225
42.3621
42.4123
42.4886
42.4982
42.7183
42.6782
42.8057
-0.238614
-0.13305
-0.440032
-0.174753
-0.251141
-0.21607
-0.1806
-0.146171
-0.112392
-0.0793966
-0.04758
-0.0159171
42.2562
42.2562
42.2609
42.2721
42.2907
42.3184
42.3579
42.4088
42.4862
42.5015
42.7241
42.6897
42.821
-0.244152
-0.138064
-0.444583
-0.178969
-0.254837
-0.219282
-0.183304
-0.148364
-0.114082
-0.0805922
-0.048292
-0.0161526
42.256
42.2549
42.2589
42.2696
42.2879
42.3152
42.3548
42.4061
42.4844
42.5043
42.7293
42.6995
42.8341
-0.248599
-0.142295
-0.448067
-0.182303
-0.257684
-0.221754
-0.185382
-0.150049
-0.115378
-0.0815098
-0.0488383
-0.0163331
42.256
42.2542
42.2577
42.268
42.286
42.3132
42.3526
42.4043
42.4834
42.5063
42.7333
42.7068
42.8441
-0.251888
-0.144952
-0.45039
-0.184518
-0.259609
-0.223423
-0.18679
-0.151191
-0.116258
-0.0821322
-0.0492087
-0.0164552
42.2614
42.2547
42.2572
42.2673
42.2851
42.3122
42.3517
42.4036
42.483
42.5074
42.7371
42.7105
42.8501
-0.254031
-0.147253
-0.451471
-0.185806
-0.260599
-0.22427
-0.18751
-0.151773
-0.116705
-0.0824488
-0.0493962
-0.0165162
42.3489
42.347
42.357
42.3763
42.4034
42.4376
42.4789
42.5143
42.6151
42.5054
42.7667
42.623
42.7169
-0.102191
-0.00100272
-0.311583
-0.0603994
-0.146948
-0.125518
-0.103781
-0.0833591
-0.0636401
-0.044639
-0.026729
-0.00895797
42.3427
42.3452
42.356
42.3754
42.4025
42.4367
42.4781
42.5137
42.6139
42.5063
42.7607
42.6215
42.717
-0.102516
-0.000556307
-0.312731
-0.0609016
-0.14768
-0.126261
-0.104399
-0.0838639
-0.0640325
-0.044918
-0.0268972
-0.00901587
42.3393
42.3428
42.3541
42.3735
42.4007
42.4348
42.4762
42.5122
42.6114
42.5064
42.757
42.6199
42.7171
-0.104295
-0.00378279
-0.315562
-0.0633937
-0.149694
-0.127805
-0.10567
-0.0848936
-0.0648269
-0.045481
-0.027233
-0.00912719
42.3352
42.3396
42.3512
42.3707
42.3979
42.432
42.4734
42.5098
42.6075
42.5058
42.7521
42.6181
42.7165
-0.107158
-0.00549557
-0.317913
-0.0654915
-0.152012
-0.12998
-0.10755
-0.0864267
-0.0660101
-0.0463196
-0.0277327
-0.00929278
42.3309
42.3357
42.3476
42.3671
42.3941
42.4282
42.4695
42.5065
42.6023
42.5047
42.7461
42.6159
42.7152
-0.110971
-0.0112715
-0.323106
-0.069971
-0.155551
-0.132959
-0.110037
-0.0884458
-0.0675672
-0.0474228
-0.0283901
-0.00951042
42.3262
42.3313
42.3433
42.3626
42.3895
42.4234
42.4648
42.5024
42.5958
42.5033
42.7388
42.6131
42.7132
-0.115818
-0.0150712
-0.3278
-0.0741506
-0.159664
-0.136578
-0.11309
-0.0909249
-0.0694785
-0.0487766
-0.0291967
-0.00977738
42.3212
42.3264
42.3383
42.3575
42.3841
42.4178
42.4591
42.4973
42.5881
42.5011
42.7306
42.6099
42.7108
-0.122251
-0.0220128
-0.333997
-0.0797045
-0.164565
-0.140832
-0.116672
-0.093832
-0.0717192
-0.0503635
-0.030142
-0.0100901
42.3159
42.321
42.3328
42.3517
42.378
42.4114
42.4525
42.4914
42.5793
42.4971
42.7228
42.6063
42.7079
-0.129594
-0.029206
-0.340966
-0.0859601
-0.170125
-0.145658
-0.120735
-0.0971287
-0.0742597
-0.0521626
-0.0312142
-0.0104446
42.3103
42.3153
42.3268
42.3453
42.3712
42.4043
42.4451
42.4846
42.5695
42.4924
42.7145
42.6024
42.7048
-0.137804
-0.0372507
-0.348658
-0.0928769
-0.17627
-0.150992
-0.125223
-0.10077
-0.0770654
-0.0541492
-0.0323987
-0.0108359
42.3044
42.3093
42.3204
42.3385
42.3639
42.3965
42.437
42.4771
42.5588
42.4874
42.7056
42.5982
42.7015
-0.146767
-0.045984
-0.35697
-0.100365
-0.182915
-0.156759
-0.130076
-0.104706
-0.080097
-0.0562954
-0.033677
-0.0112599
42.2984
42.303
42.3138
42.3314
42.3561
42.3882
42.4283
42.469
42.5474
42.4822
42.6963
42.5941
42.6984
-0.15633
-0.0552728
-0.365785
-0.108318
-0.189967
-0.162877
-0.135222
-0.108879
-0.0833108
-0.0585703
-0.0350319
-0.0117089
42.2923
42.2967
42.307
42.324
42.3481
42.3795
42.4191
42.4602
42.5357
42.4769
42.687
42.5903
42.6956
-0.166363
-0.0649767
-0.374976
-0.116615
-0.197321
-0.169257
-0.140587
-0.113229
-0.08666
-0.0609401
-0.0364432
-0.0121758
42.2862
42.2904
42.3002
42.3165
42.3398
42.3705
42.4096
42.451
42.5238
42.4717
42.6779
42.5871
42.6937
-0.1767
-0.0749448
-0.384404
-0.125131
-0.204867
-0.1758
-0.146089
-0.117689
-0.0900935
-0.0633693
-0.0378896
-0.0126541
42.2803
42.2841
42.2934
42.309
42.3315
42.3614
42.3998
42.4416
42.5119
42.4668
42.6697
42.5851
42.6929
-0.187186
-0.0850212
-0.393922
-0.133733
-0.212488
-0.182406
-0.151643
-0.122189
-0.0935573
-0.0658201
-0.0393489
-0.0131367
42.2745
42.2781
42.2868
42.3016
42.3232
42.3523
42.3901
42.432
42.5005
42.4624
42.6625
42.5846
42.6938
-0.197653
-0.0950455
-0.403378
-0.142283
-0.220061
-0.188969
-0.157159
-0.126659
-0.0969971
-0.0682533
-0.0407975
-0.0136159
42.2691
42.2723
42.2804
42.2944
42.3152
42.3434
42.3805
42.4226
42.4896
42.4588
42.6569
42.5861
42.6968
-0.207932
-0.104854
-0.412615
-0.150641
-0.227462
-0.19538
-0.162548
-0.131025
-0.100356
-0.0706289
-0.0422119
-0.0140836
42.264
42.2669
42.2744
42.2876
42.3075
42.3348
42.3713
42.4136
42.4797
42.4561
42.6529
42.5897
42.702
-0.217848
-0.114288
-0.421477
-0.158669
-0.234566
-0.201534
-0.167719
-0.135213
-0.103579
-0.0729073
-0.0435681
-0.0145321
42.2595
42.262
42.2689
42.2813
42.3003
42.3268
42.3627
42.4051
42.4707
42.4543
42.6508
42.5955
42.7096
-0.227249
-0.123183
-0.42981
-0.166229
-0.241249
-0.207323
-0.172583
-0.139152
-0.106609
-0.0750495
-0.0448432
-0.0149538
42.2556
42.2577
42.264
42.2756
42.2938
42.3195
42.3548
42.3973
42.463
42.4533
42.6503
42.6024
42.7191
-0.235964
-0.131421
-0.437468
-0.173195
-0.247396
-0.212646
-0.177055
-0.142773
-0.109394
-0.0770185
-0.0460151
-0.0153413
42.2524
42.2541
42.2597
42.2706
42.288
42.313
42.3477
42.3905
42.4564
42.4531
42.6513
42.6099
42.7301
-0.24385
-0.138795
-0.444302
-0.179433
-0.252892
-0.217408
-0.181055
-0.146011
-0.111884
-0.0787791
-0.047063
-0.0156877
42.25
42.2512
42.2561
42.2663
42.283
42.3073
42.3416
42.3846
42.451
42.4535
42.6532
42.6179
42.7415
-0.250781
-0.145332
-0.450206
-0.184866
-0.257646
-0.221525
-0.184511
-0.148809
-0.114035
-0.0802996
-0.0479678
-0.0159868
42.2486
42.249
42.2532
42.2629
42.2789
42.3028
42.3367
42.3799
42.4468
42.4543
42.6555
42.6255
42.7524
-0.256633
-0.150655
-0.45504
-0.18933
-0.261555
-0.224913
-0.187358
-0.151114
-0.115807
-0.081552
-0.048713
-0.0162331
42.2484
42.2477
42.2512
42.2603
42.2759
42.2993
42.3329
42.3763
42.4437
42.4552
42.6577
42.632
42.7619
-0.261329
-0.155118
-0.458745
-0.192854
-0.264568
-0.227522
-0.189546
-0.152884
-0.117168
-0.0825135
-0.0492849
-0.0164219
42.2484
42.247
42.2498
42.2586
42.2739
42.297
42.3304
42.3739
42.4417
42.456
42.6594
42.637
42.7692
-0.264797
-0.157943
-0.461216
-0.195199
-0.266604
-0.229284
-0.191029
-0.154085
-0.118091
-0.0831659
-0.0496728
-0.0165498
42.2537
42.2475
42.2493
42.2578
42.2729
42.2959
42.3293
42.3728
42.4407
42.4566
42.6609
42.6403
42.7732
-0.267052
-0.160322
-0.462373
-0.196548
-0.267652
-0.230177
-0.191787
-0.154697
-0.118561
-0.083498
-0.0498696
-0.0166138
42.3416
42.3401
42.3503
42.3694
42.3964
42.4302
42.4713
42.5069
42.6059
42.4988
42.7572
42.6158
42.7105
-0.108224
-0.0068273
-0.315217
-0.0653399
-0.148344
-0.126694
-0.104087
-0.0830572
-0.0629949
-0.0438946
-0.0261097
-0.00868184
42.3353
42.3383
42.3493
42.3685
42.3954
42.4293
42.4704
42.5062
42.6046
42.4997
42.7508
42.6142
42.7105
-0.1086
-0.00645798
-0.316495
-0.0659437
-0.149157
-0.127486
-0.104742
-0.0835898
-0.0634067
-0.0441862
-0.0262846
-0.00874143
42.332
42.3359
42.3473
42.3666
42.3935
42.4273
42.4684
42.5045
42.6017
42.4997
42.7464
42.6123
42.7103
-0.110517
-0.00980059
-0.319213
-0.0684359
-0.15117
-0.129092
-0.106076
-0.0846696
-0.064238
-0.0447743
-0.0266349
-0.00885745
42.3278
42.3326
42.3444
42.3637
42.3905
42.4243
42.4653
42.5018
42.5974
42.4989
42.7406
42.61
42.7093
-0.113481
-0.0118141
-0.3222
-0.0709621
-0.153765
-0.131429
-0.108058
-0.086278
-0.0654765
-0.0456504
-0.0271564
-0.00903005
42.3234
42.3287
42.3407
42.3599
42.3866
42.4202
42.4611
42.4981
42.5915
42.4975
42.7332
42.6071
42.7074
-0.117549
-0.0175717
-0.327184
-0.0753055
-0.157419
-0.134553
-0.110674
-0.0883971
-0.0671072
-0.0468039
-0.0278429
-0.00925707
42.3187
42.3242
42.3362
42.3553
42.3818
42.4151
42.4559
42.4933
42.5842
42.4953
42.7244
42.6033
42.7045
-0.122921
-0.0222015
-0.332544
-0.0801042
-0.16182
-0.138376
-0.113888
-0.0910003
-0.0691101
-0.0482204
-0.0286858
-0.00953571
42.3136
42.3192
42.3311
42.35
42.3761
42.4091
42.4496
42.4875
42.5755
42.4911
42.7153
42.5988
42.7006
-0.129802
-0.029547
-0.339095
-0.0859358
-0.167003
-0.142869
-0.117661
-0.0940553
-0.0714601
-0.049882
-0.0296741
-0.00986242
42.3082
42.3137
42.3255
42.344
42.3696
42.4022
42.4423
42.4806
42.5653
42.4854
42.7056
42.5933
42.6959
-0.137667
-0.0372009
-0.346514
-0.0925841
-0.172898
-0.147971
-0.121944
-0.0975226
-0.0741268
-0.0517672
-0.0307945
-0.010233
42.3025
42.3079
42.3193
42.3374
42.3625
42.3945
42.4342
42.4727
42.5539
42.479
42.6945
42.587
42.6901
-0.146448
-0.0457956
-0.354718
-0.0999531
-0.17942
-0.153616
-0.126681
-0.101356
-0.0770746
-0.0538513
-0.0320387
-0.0106426
42.2966
42.3017
42.3128
42.3303
42.3547
42.3861
42.4251
42.4638
42.5414
42.4718
42.6821
42.5797
42.6835
-0.156032
-0.0551511
-0.363597
-0.10794
-0.186481
-0.159725
-0.131807
-0.105504
-0.0802629
-0.0561048
-0.0333784
-0.0110854
42.2905
42.2954
42.306
42.3229
42.3465
42.3771
42.4153
42.454
42.5279
42.4638
42.6686
42.5716
42.6759
-0.166278
-0.0651151
-0.373026
-0.116429
-0.193983
-0.166213
-0.13725
-0.109907
-0.0836466
-0.0584959
-0.0348007
-0.0115578
42.2843
42.2889
42.299
42.3151
42.3379
42.3676
42.4049
42.4434
42.5136
42.4552
42.6544
42.5629
42.6677
-0.177027
-0.0755348
-0.382869
-0.125296
-0.201815
-0.172986
-0.142931
-0.114501
-0.0871765
-0.0609897
-0.0362838
-0.0120475
42.2781
42.2824
42.2919
42.3073
42.3291
42.3577
42.394
42.4322
42.4988
42.4462
42.6397
42.554
42.6592
-0.188113
-0.0862484
-0.392976
-0.134405
-0.209861
-0.179941
-0.148763
-0.119216
-0.0907991
-0.0635485
-0.0378057
-0.0125503
42.2721
42.2761
42.2849
42.2994
42.3202
42.3477
42.3828
42.4205
42.4837
42.437
42.625
42.5455
42.6508
-0.199368
-0.0970867
-0.403192
-0.143613
-0.217995
-0.18697
-0.154656
-0.12398
-0.094458
-0.0661328
-0.0393425
-0.0130579
42.2662
42.2698
42.2781
42.2917
42.3114
42.3376
42.3715
42.4085
42.4688
42.4279
42.611
42.538
42.6431
-0.210612
-0.107878
-0.413352
-0.152774
-0.226087
-0.193961
-0.160516
-0.128716
-0.0980953
-0.0687009
-0.0408697
-0.0135625
42.2606
42.2639
42.2715
42.2842
42.3027
42.3278
42.3604
42.3967
42.4544
42.4191
42.598
42.5319
42.6369
-0.221658
-0.118444
-0.423286
-0.161737
-0.234003
-0.200799
-0.166247
-0.133347
-0.101651
-0.0712111
-0.0423622
-0.0140556
42.2555
42.2584
42.2653
42.277
42.2945
42.3183
42.3496
42.3852
42.4408
42.4111
42.5867
42.5273
42.6326
-0.232324
-0.128613
-0.432827
-0.170353
-0.241609
-0.207367
-0.171751
-0.137795
-0.105064
-0.0736209
-0.0437949
-0.0145289
42.2509
42.2534
42.2596
42.2704
42.2867
42.3093
42.3395
42.3743
42.4283
42.4039
42.5772
42.5237
42.6305
-0.242431
-0.138205
-0.441805
-0.178471
-0.248771
-0.213551
-0.176933
-0.141981
-0.108278
-0.0758888
-0.0451431
-0.0149742
42.2469
42.249
42.2544
42.2644
42.2797
42.3011
42.3301
42.3642
42.4172
42.3978
42.5696
42.5219
42.6304
-0.25181
-0.147087
-0.450063
-0.185955
-0.255363
-0.219243
-0.181702
-0.145832
-0.111233
-0.0779746
-0.0463831
-0.0153838
42.2436
42.2453
42.25
42.2591
42.2734
42.2937
42.3217
42.3552
42.4074
42.3927
42.5638
42.5213
42.6321
-0.260296
-0.155046
-0.457437
-0.192662
-0.261262
-0.224338
-0.18597
-0.14928
-0.113878
-0.0798411
-0.0474926
-0.0157502
42.2412
42.2422
42.2462
42.2545
42.268
42.2874
42.3145
42.3475
42.3992
42.3888
42.5594
42.5217
42.6347
-0.267755
-0.162084
-0.463812
-0.198501
-0.266367
-0.228745
-0.189661
-0.152259
-0.116164
-0.0814539
-0.0484512
-0.0160668
42.2397
42.24
42.2433
42.2509
42.2636
42.2822
42.3086
42.3411
42.3926
42.3858
42.5561
42.5225
42.6375
-0.27405
-0.167833
-0.469035
-0.203302
-0.270568
-0.232374
-0.192702
-0.154715
-0.118049
-0.0827834
-0.0492414
-0.0163277
42.2394
42.2386
42.2411
42.2481
42.2602
42.2783
42.304
42.3362
42.3875
42.3837
42.5537
42.5231
42.6398
-0.279098
-0.172613
-0.473042
-0.207084
-0.273806
-0.235169
-0.195041
-0.156603
-0.119496
-0.0838046
-0.0498482
-0.0165279
42.2394
42.2379
42.2397
42.2463
42.258
42.2757
42.301
42.333
42.3841
42.3825
42.5516
42.5234
42.6412
-0.28282
-0.175667
-0.475718
-0.209608
-0.275995
-0.237058
-0.196626
-0.157883
-0.120478
-0.0844977
-0.0502599
-0.0166635
42.2447
42.2384
42.2392
42.2455
42.257
42.2745
42.2996
42.3315
42.3824
42.3824
42.5508
42.5231
42.6415
-0.285209
-0.178157
-0.476981
-0.211044
-0.277123
-0.238015
-0.197436
-0.158536
-0.120979
-0.0848508
-0.0504691
-0.0167317
42.3332
42.332
42.3421
42.3611
42.3876
42.4211
42.4619
42.4977
42.5945
42.4906
42.7455
42.6069
42.7021
-0.115955
-0.0142175
-0.319545
-0.0715278
-0.150044
-0.128008
-0.104327
-0.082558
-0.0620903
-0.042892
-0.0252904
-0.00832056
42.327
42.3301
42.3411
42.3601
42.3867
42.4202
42.4609
42.4969
42.5931
42.4915
42.7386
42.6051
42.702
-0.116405
-0.0139443
-0.321017
-0.072246
-0.150938
-0.128853
-0.105025
-0.0831227
-0.0625251
-0.0431987
-0.0254737
-0.00838241
42.3235
42.3277
42.339
42.3581
42.3846
42.418
42.4587
42.495
42.5898
42.4913
42.7335
42.6028
42.7016
-0.118444
-0.0174412
-0.323776
-0.0748056
-0.153024
-0.130556
-0.10644
-0.0842649
-0.0634022
-0.043818
-0.0258417
-0.00850417
42.3194
42.3243
42.3361
42.3551
42.3815
42.4147
42.4553
42.4918
42.5849