/*--------------------------------*- C++ -*----------------------------------*\
| =========                 |                                                 |
| \\      /  F ield         | OpenFOAM: The Open Source CFD Toolbox           |
|  \\    /   O peration     | Version:  2306                                  |
|   \\  /    A nd           | Website:  www.openfoam.com                      |
|    \\/     M anipulation  |                                                 |
\*---------------------------------------------------------------------------*/
FoamFile
{
    version     2.0;
    format      ascii;
    arch        "LSB;label=32;scalar=64";
    class       volScalarField;
    location    "3.7";
    object      p;
}
// * * * * * * * * * * * * * * * * * * * * * * * * * * * * * * * * * * * * * //

dimensions      [0 2 -2 0 0 0 0];

internalField   nonuniform List<scalar> 
288632
(
61.3019
61.2935
61.3049
61.3283
61.3608
61.4
61.4506
61.4863
61.5632
61.572
61.6638
61.6694
61.7059
-1.72526
-1.6176
-1.66167
-1.41435
-1.35804
-1.16307
-1.00287
-0.827215
-0.646341
-0.462767
-0.278123
-0.0928645
61.295
61.292
61.3043
61.3277
61.3604
61.3997
61.4504
61.4863
61.5632
61.5727
61.6638
61.6692
61.7064
-1.72594
-1.61849
-1.66323
-1.41555
-1.35924
-1.16416
-1.00378
-0.82796
-0.646928
-0.463187
-0.278376
-0.0929496
61.2928
61.2905
61.3031
61.3266
61.3593
61.3988
61.4496
61.4861
61.563
61.5738
61.6643
61.6701
61.7081
-1.72846
-1.62154
-1.66631
-1.41823
-1.36176
-1.16635
-1.00565
-0.829491
-0.648124
-0.464043
-0.27889
-0.0931213
61.2892
61.2881
61.3012
61.3249
61.3578
61.3974
61.4484
61.4856
61.5626
61.5753
61.6648
61.672
61.7103
-1.73273
-1.62595
-1.67089
-1.42222
-1.36551
-1.16959
-1.00843
-0.831782
-0.649911
-0.465321
-0.279658
-0.0933776
61.286
61.2854
61.2988
61.3227
61.3557
61.3956
61.4467
61.4849
61.5621
61.5769
61.6657
61.6744
61.7131
-1.73865
-1.63198
-1.67689
-1.42753
-1.37046
-1.17385
-1.01209
-0.834798
-0.652265
-0.467005
-0.280669
-0.0937151
61.2827
61.2825
61.2961
61.3201
61.3532
61.3933
61.4447
61.484
61.5614
61.5788
61.6669
61.6774
61.7165
-1.74609
-1.63936
-1.68421
-1.43403
-1.37651
-1.17907
-1.01658
-0.8385
-0.655153
-0.469072
-0.281911
-0.0941294
61.2793
61.2793
61.293
61.3171
61.3502
61.3906
61.4422
61.4829
61.5607
61.581
61.6686
61.6811
61.7207
-1.75492
-1.64807
-1.69277
-1.44165
-1.38359
-1.18518
-1.02183
-0.842834
-0.658536
-0.471494
-0.283366
-0.0946149
61.2758
61.2759
61.2896
61.3137
61.3469
61.3876
61.4395
61.4815
61.5599
61.5834
61.6709
61.6856
61.7257
-1.76499
-1.65789
-1.70241
-1.45027
-1.39159
-1.19209
-1.02778
-0.847739
-0.662366
-0.474236
-0.285014
-0.0951649
61.2723
61.2724
61.286
61.3101
61.3433
61.3842
61.4365
61.48
61.5591
61.5861
61.6737
61.6909
61.7316
-1.77613
-1.66872
-1.71299
-1.45976
-1.40039
-1.1997
-1.03433
-0.853145
-0.666589
-0.477259
-0.286831
-0.0957715
61.2686
61.2687
61.2823
61.3062
61.3394
61.3805
61.4332
61.4785
61.5584
61.5891
61.6774
61.6972
61.7387
-1.78817
-1.68036
-1.72435
-1.46997
-1.40986
-1.20789
-1.04138
-0.858971
-0.671142
-0.480521
-0.288792
-0.0964262
61.265
61.265
61.2784
61.3022
61.3354
61.3767
61.4298
61.4768
61.5577
61.5925
61.6818
61.7046
61.7471
-1.8009
-1.69262
-1.73631
-1.48074
-1.41985
-1.21654
-1.04884
-0.865132
-0.675959
-0.483972
-0.290867
-0.0971192
61.2613
61.2612
61.2744
61.2981
61.3312
61.3727
61.4263
61.4751
61.5572
61.5964
61.6872
61.7133
61.757
-1.81411
-1.70532
-1.74868
-1.4919
-1.4302
-1.22552
-1.05658
-0.871533
-0.680965
-0.487561
-0.293026
-0.0978402
61.2577
61.2575
61.2705
61.294
61.327
61.3687
61.4228
61.4736
61.5569
61.6008
61.6937
61.7233
61.7686
-1.8276
-1.71823
-1.76127
-1.50327
-1.44076
-1.23468
-1.06449
-0.878075
-0.686085
-0.491232
-0.295235
-0.0985781
61.2542
61.2538
61.2666
61.2899
61.3228
61.3647
61.4193
61.4721
61.557
61.6058
61.7013
61.7348
61.7818
-1.84114
-1.73117
-1.77387
-1.51467
-1.45135
-1.24389
-1.07244
-0.884655
-0.691236
-0.494927
-0.297459
-0.0993214
61.2509
61.2504
61.2629
61.2859
61.3187
61.3607
61.4159
61.4708
61.5573
61.6114
61.7101
61.7477
61.7969
-1.85453
-1.74391
-1.78628
-1.52593
-1.46181
-1.25298
-1.0803
-0.891168
-0.696338
-0.498588
-0.299662
-0.100058
61.2479
61.2472
61.2594
61.2822
61.3147
61.3569
61.4128
61.4697
61.5579
61.6174
61.7201
61.7618
61.8135
-1.86754
-1.75626
-1.7983
-1.53685
-1.47197
-1.26183
-1.08795
-0.897507
-0.701306
-0.502155
-0.30181
-0.100776
61.2451
61.2442
61.2562
61.2786
61.311
61.3534
61.4098
61.4688
61.5589
61.6238
61.7309
61.7771
61.8315
-1.87997
-1.76803
-1.80974
-1.54727
-1.48166
-1.27027
-1.09526
-0.903568
-0.706059
-0.505568
-0.303866
-0.101464
61.2427
61.2416
61.2532
61.2754
61.3076
61.3501
61.4071
61.4682
61.5601
61.6304
61.7424
61.7931
61.8506
-1.89163
-1.77901
-1.82041
-1.55701
-1.49072
-1.27818
-1.10211
-0.90925
-0.710516
-0.50877
-0.305795
-0.102109
61.2407
61.2393
61.2506
61.2725
61.3046
61.3472
61.4047
61.4678
61.5615
61.637
61.7542
61.8093
61.8701
-1.90234
-1.78907
-1.83016
-1.56593
-1.499
-1.28542
-1.10838
-0.914458
-0.714603
-0.511707
-0.307565
-0.102701
61.2393
61.2375
61.2484
61.27
61.3019
61.3446
61.4027
61.4676
61.5631
61.6434
61.7657
61.8253
61.8895
-1.91193
-1.79801
-1.8388
-1.57387
-1.50637
-1.29187
-1.11397
-0.919102
-0.71825
-0.514328
-0.309144
-0.10323
61.2385
61.2362
61.2466
61.2679
61.2996
61.3425
61.401
61.4676
61.5646
61.6493
61.7764
61.8402
61.9077
-1.92027
-1.80576
-1.84622
-1.58071
-1.51272
-1.29742
-1.11878
-0.923103
-0.721392
-0.516588
-0.310507
-0.103686
61.2381
61.2352
61.2452
61.2662
61.2978
61.3407
61.3996
61.4676
61.566
61.6544
61.7859
61.8534
61.924
-1.92722
-1.81212
-1.85228
-1.58633
-1.51792
-1.30197
-1.12274
-0.926392
-0.723977
-0.518446
-0.311627
-0.10406
61.2397
61.2349
61.2442
61.265
61.2964
61.3394
61.3986
61.4678
61.5672
61.6585
61.7935
61.8642
61.9375
-1.93271
-1.81714
-1.85691
-1.59067
-1.52191
-1.30546
-1.12577
-0.928914
-0.725958
-0.519871
-0.312486
-0.104348
61.2397
61.2345
61.2435
61.2641
61.2955
61.3386
61.398
61.4679
61.5681
61.6613
61.7987
61.8722
61.9475
-1.93664
-1.82045
-1.86001
-1.59361
-1.52461
-1.30781
-1.12782
-0.930625
-0.7273
-0.520836
-0.313067
-0.104542
61.2456
61.2352
61.2433
61.2639
61.2952
61.3382
61.3977
61.468
61.5687
61.663
61.8018
61.8761
61.9535
-1.93892
-1.82272
-1.86156
-1.59521
-1.52602
-1.30898
-1.12887
-0.931501
-0.727984
-0.521326
-0.313361
-0.104639
61.2936
61.2904
61.3026
61.326
61.3585
61.3977
61.4482
61.484
61.5606
61.5699
61.6609
61.6669
61.7045
-1.73053
-1.62334
-1.66727
-1.41874
-1.36131
-1.16573
-1.00449
-0.828153
-0.646832
-0.462962
-0.278166
-0.0928533
61.2867
61.2886
61.3021
61.3255
61.3581
61.3974
61.448
61.484
61.5606
61.5714
61.6584
61.6666
61.7054
-1.73115
-1.62426
-1.66886
-1.41997
-1.36254
-1.16684
-1.00542
-0.82891
-0.647428
-0.463389
-0.278422
-0.0929398
61.2847
61.287
61.3009
61.3243
61.357
61.3965
61.4472
61.4838
61.5604
61.5727
61.6584
61.6675
61.7072
-1.73371
-1.62736
-1.67201
-1.4227
-1.3651
-1.16906
-1.00731
-0.830464
-0.648641
-0.464256
-0.278943
-0.0931138
61.2813
61.2845
61.2989
61.3226
61.3554
61.3951
61.4459
61.4833
61.5599
61.5741
61.6586
61.6692
61.7094
-1.73805
-1.63186
-1.67666
-1.42676
-1.36891
-1.17235
-1.01013
-0.832787
-0.650453
-0.465552
-0.279721
-0.0933734
61.278
61.282
61.2965
61.3204
61.3533
61.3932
61.4442
61.4825
61.5593
61.5757
61.6592
61.6715
61.7122
-1.74406
-1.63801
-1.68278
-1.43216
-1.37394
-1.17668
-1.01385
-0.835847
-0.652839
-0.467259
-0.280746
-0.0937155
61.2746
61.2792
61.2937
61.3177
61.3508
61.3908
61.4421
61.4814
61.5585
61.5774
61.6603
61.6744
61.7156
-1.7516
-1.64552
-1.69023
-1.43877
-1.38009
-1.18198
-1.01841
-0.839602
-0.655768
-0.469355
-0.282005
-0.0941355
61.2712
61.2761
61.2906
61.3147
61.3478
61.388
61.4395
61.4801
61.5576
61.5793
61.6618
61.678
61.7196
-1.76055
-1.65438
-1.69894
-1.44653
-1.38729
-1.18819
-1.02374
-0.844
-0.6592
-0.47181
-0.28348
-0.0946277
61.2677
61.2727
61.2872
61.3113
61.3444
61.3849
61.4366
61.4786
61.5566
61.5814
61.6638
61.6823
61.7245
-1.77077
-1.66439
-1.70875
-1.4553
-1.39543
-1.19521
-1.02978
-0.848979
-0.663086
-0.474592
-0.285152
-0.0951855
61.2641
61.2691
61.2836
61.3076
61.3407
61.3814
61.4335
61.4769
61.5555
61.5837
61.6664
61.6875
61.7303
-1.78207
-1.67541
-1.71953
-1.46495
-1.40438
-1.20294
-1.03643
-0.854468
-0.667372
-0.47766
-0.286996
-0.0958011
61.2605
61.2654
61.2798
61.3037
61.3368
61.3776
61.43
61.4751
61.5545
61.5863
61.6696
61.6935
61.7372
-1.79428
-1.68726
-1.7311
-1.47534
-1.414
-1.21127
-1.0436
-0.860385
-0.671995
-0.480971
-0.288986
-0.0964655
61.2568
61.2616
61.2759
61.2996
61.3326
61.3737
61.4264
61.4731
61.5535
61.5892
61.6735
61.7007
61.7453
-1.80718
-1.69975
-1.74328
-1.48629
-1.42416
-1.22007
-1.05118
-0.866644
-0.676886
-0.484475
-0.291093
-0.0971691
61.2531
61.2578
61.2719
61.2954
61.3283
61.3695
61.4227
61.4711
61.5526
61.5925
61.6782
61.709
61.7549
-1.82058
-1.71267
-1.75588
-1.49765
-1.4347
-1.2292
-1.05905
-0.873149
-0.681973
-0.488121
-0.293286
-0.0979014
61.2495
61.2541
61.2679
61.2912
61.324
61.3653
61.419
61.4692
61.5519
61.5962
61.6838
61.7185
61.766
-1.83425
-1.72581
-1.76869
-1.50923
-1.44544
-1.23853
-1.06709
-0.8798
-0.687176
-0.491851
-0.29553
-0.0986512
61.246
61.2504
61.264
61.2871
61.3197
61.3611
61.4152
61.4673
61.5514
61.6004
61.6906
61.7294
61.7788
-1.84798
-1.73898
-1.78153
-1.52083
-1.45622
-1.24789
-1.07518
-0.886491
-0.692413
-0.495607
-0.29779
-0.0994066
61.2427
61.247
61.2603
61.2831
61.3155
61.357
61.4116
61.4656
61.5512
61.6051
61.6984
61.7416
61.7933
-1.86155
-1.75194
-1.79416
-1.53229
-1.46687
-1.25715
-1.08318
-0.893115
-0.6976
-0.499329
-0.30003
-0.100156
61.2396
61.2437
61.2567
61.2792
61.3114
61.3531
61.4081
61.4641
61.5513
61.6102
61.7073
61.7551
61.8093
-1.87473
-1.76451
-1.80641
-1.54341
-1.47721
-1.26615
-1.09096
-0.899564
-0.702654
-0.502956
-0.302214
-0.100886
61.2368
61.2407
61.2534
61.2756
61.3076
61.3493
61.4049
61.4628
61.5517
61.6156
61.7171
61.7697
61.8269
-1.88733
-1.77648
-1.81806
-1.55402
-1.48707
-1.27475
-1.0984
-0.905733
-0.70749
-0.506428
-0.304306
-0.101585
61.2344
61.2381
61.2505
61.2723
61.3041
61.3459
61.4019
61.4617
61.5524
61.6213
61.7275
61.7851
61.8454
-1.89914
-1.78766
-1.82893
-1.56393
-1.4963
-1.2828
-1.10537
-0.911517
-0.712026
-0.509687
-0.306269
-0.102242
61.2325
61.2358
61.2478
61.2694
61.3009
61.3428
61.3993
61.4609
61.5533
61.627
61.7382
61.8006
61.8645
-1.90999
-1.79789
-1.83884
-1.57301
-1.50474
-1.29017
-1.11176
-0.916818
-0.716187
-0.512676
-0.30807
-0.102845
61.231
61.234
61.2456
61.2668
61.2982
61.3401
61.397
61.4603
61.5543
61.6324
61.7487
61.8159
61.8833
-1.9197
-1.80698
-1.84764
-1.58109
-1.51224
-1.29674
-1.11745
-0.921547
-0.719899
-0.515344
-0.309678
-0.103383
61.2302
61.2326
61.2437
61.2647
61.2958
61.3378
61.3951
61.4599
61.5554
61.6375
61.7585
61.8303
61.9012
-1.92813
-1.81485
-1.85519
-1.58806
-1.51871
-1.30239
-1.12236
-0.925622
-0.723099
-0.517645
-0.311065
-0.103847
61.2298
61.2317
61.2423
61.2629
61.2939
61.3359
61.3935
61.4597
61.5564
61.6419
61.7671
61.843
61.9171
-1.93518
-1.82132
-1.86136
-1.59377
-1.524
-1.30703
-1.12639
-0.928972
-0.725731
-0.519537
-0.312206
-0.104229
61.2314
61.2314
61.2413
61.2617
61.2925
61.3345
61.3924
61.4595
61.5573
61.6453
61.774
61.8534
61.9303
-1.94073
-1.82641
-1.86607
-1.59819
-1.52807
-1.31059
-1.12947
-0.931541
-0.727749
-0.520988
-0.31308
-0.104521
61.2314
61.231
61.2406
61.2608
61.2916
61.3336
61.3916
61.4595
61.558
61.6478
61.7786
61.8609
61.94
-1.9447
-1.82977
-1.86923
-1.60118
-1.53082
-1.31298
-1.13156
-0.933283
-0.729116
-0.521971
-0.313672
-0.104719
61.2371
61.2317
61.2404
61.2605
61.2912
61.3332
61.3913
61.4595
61.5585
61.6492
61.782
61.8632
61.9455
-1.94701
-1.83206
-1.87079
-1.6028
-1.53225
-1.31416
-1.13263
-0.934174
-0.72981
-0.522469
-0.313972
-0.104818
61.2881
61.2855
61.298
61.3214
61.3537
61.3928
61.4431
61.479
61.5553
61.5655
61.6555
61.6625
61.7012
-1.74259
-1.63577
-1.67816
-1.42739
-1.36757
-1.1706
-1.00739
-0.829746
-0.647562
-0.463158
-0.278116
-0.0927753
61.2816
61.2837
61.2974
61.3208
61.3533
61.3924
61.4428
61.479
61.5552
61.5671
61.6525
61.6621
61.7021
-1.7432
-1.63674
-1.67981
-1.42866
-1.36884
-1.17175
-1.00834
-0.830525
-0.648174
-0.463596
-0.278379
-0.0928638
61.2794
61.2821
61.2962
61.3196
61.3522
61.3915
61.442
61.4787
61.5549
61.5683
61.6526
61.6629
61.7039
-1.74585
-1.63996
-1.68307
-1.43148
-1.37148
-1.17404
-1.01028
-0.832122
-0.64942
-0.464486
-0.278913
-0.0930421
61.2756
61.2798
61.2942
61.3179
61.3506
61.39
61.4406
61.478
61.5543
61.5695
61.6527
61.6645
61.7061
-1.75034
-1.64463
-1.68789
-1.43568
-1.37541
-1.17743
-1.01319
-0.83451
-0.651281
-0.465817
-0.279712
-0.0933086
61.2723
61.2772
61.2918
61.3156
61.3484
61.388
61.4388
61.4771
61.5534
61.5709
61.6531
61.6665
61.7088
-1.75655
-1.651
-1.69422
-1.44126
-1.3806
-1.18189
-1.01701
-0.837657
-0.653734
-0.46757
-0.280764
-0.0936597
61.2689
61.2743
61.289
61.3129
61.3458
61.3855
61.4365
61.4758
61.5524
61.5723
61.6537
61.6691
61.7118
-1.76434
-1.6588
-1.70194
-1.4481
-1.38695
-1.18736
-1.02171
-0.84152
-0.656745
-0.469723
-0.282057
-0.094091
61.2655
61.2711
61.2859
61.3098
61.3426
61.3826
61.4337
61.4742
61.5511
61.5738
61.6547
61.6721
61.7155
-1.7736
-1.66799
-1.71097
-1.45612
-1.39439
-1.19377
-1.0272
-0.846047
-0.660274
-0.472247
-0.283573
-0.0945968
61.262
61.2677
61.2825
61.3063
61.3392
61.3793
61.4306
61.4723
61.5497
61.5753
61.656
61.6758
61.7199
-1.78415
-1.67836
-1.72114
-1.4652
-1.40279
-1.20102
-1.03343
-0.851175
-0.664274
-0.475109
-0.285292
-0.0951703
61.2584
61.264
61.2788
61.3025
61.3353
61.3756
61.4271
61.4702
61.5481
61.5768
61.6576
61.6802
61.725
-1.79582
-1.68979
-1.73231
-1.47518
-1.41204
-1.209
-1.04029
-0.85683
-0.668687
-0.478267
-0.28719
-0.0958037
61.2547
61.2603
61.2749
61.2985
61.3312
61.3716
61.4233
61.4678
61.5464
61.5785
61.6597
61.6852
61.731
-1.80843
-1.70207
-1.7443
-1.48593
-1.422
-1.21761
-1.04769
-0.862931
-0.67345
-0.481676
-0.289239
-0.0964878
61.251
61.2565
61.2709
61.2943
61.3269
61.3673
61.4193
61.4653
61.5446
61.5804
61.6622
61.6912
61.738
-1.82175
-1.71502
-1.75693
-1.49728
-1.43251
-1.2267
-1.05552
-0.869388
-0.678494
-0.485288
-0.29141
-0.0972128
61.2473
61.2527
61.2669
61.29
61.3224
61.3629
61.4152
61.4626
61.5429
61.5824
61.6653
61.6979
61.7461
-1.83558
-1.72841
-1.76999
-1.50903
-1.44341
-1.23614
-1.06365
-0.876104
-0.683741
-0.489048
-0.293671
-0.0979679
61.2436
61.2489
61.2628
61.2857
61.3179
61.3584
61.4109
61.4599
61.5412
61.5847
61.6692
61.7057
61.7556
-1.84969
-1.74203
-1.78328
-1.52102
-1.45453
-1.24579
-1.07197
-0.882973
-0.689113
-0.492897
-0.295986
-0.0987415
61.2401
61.2452
61.2588
61.2815
61.3134
61.3538
61.4066
61.4572
61.5397
61.5872
61.6739
61.7144
61.7665
-1.86386
-1.75567
-1.79658
-1.53304
-1.4657
-1.25548
-1.08033
-0.889889
-0.694523
-0.496776
-0.29832
-0.0995216
61.2367
61.2416
61.255
61.2773
61.3089
61.3494
61.4024
61.4546
61.5384
61.5901
61.6795
61.7242
61.7788
-1.87784
-1.7691
-1.80968
-1.54491
-1.47673
-1.26507
-1.08861
-0.89674
-0.699886
-0.500623
-0.300635
-0.100296
61.2336
61.2383
61.2514
61.2733
61.3046
61.345
61.3984
61.4521
61.5373
61.5933
61.686
61.7351
61.7926
-1.89143
-1.78212
-1.82238
-1.55643
-1.48744
-1.27439
-1.09667
-0.903414
-0.705113
-0.504373
-0.302894
-0.101051
61.2308
61.2353
61.248
61.2696
61.3006
61.3409
61.3946
61.4499
61.5365
61.5968
61.6932
61.747
61.8076
-1.90441
-1.79451
-1.83445
-1.56742
-1.49766
-1.2833
-1.10438
-0.9098
-0.710118
-0.507966
-0.305057
-0.101774
61.2284
61.2326
61.245
61.2662
61.2969
61.3371
61.391
61.4479
61.5359
61.6004
61.7011
61.7594
61.8236
-1.91658
-1.80607
-1.84572
-1.57769
-1.50723
-1.29165
-1.1116
-0.915791
-0.714815
-0.511339
-0.307089
-0.102454
61.2263
61.2303
61.2423
61.2631
61.2935
61.3337
61.3879
61.4462
61.5357
61.6042
61.7093
61.7722
61.8401
-1.92775
-1.81666
-1.85599
-1.58709
-1.51598
-1.29929
-1.11822
-0.921285
-0.719125
-0.514434
-0.308954
-0.103078
61.2249
61.2285
61.24
61.2604
61.2905
61.3307
61.3851
61.4448
61.5356
61.6078
61.7174
61.7847
61.8564
-1.93774
-1.82606
-1.86511
-1.59546
-1.52376
-1.3061
-1.12413
-0.926186
-0.722972
-0.517199
-0.31062
-0.103636
61.224
61.2271
61.2381
61.2581
61.288
61.3281
61.3827
61.4437
61.5357
61.6112
61.725
61.7965
61.8719
-1.94642
-1.8342
-1.87293
-1.60267
-1.53046
-1.31196
-1.12921
-0.930412
-0.726289
-0.519583
-0.312058
-0.104117
61.2236
61.2261
61.2366
61.2563
61.286
61.326
61.3808
61.4428
61.5359
61.6142
61.7316
61.8069
61.8857
-1.95366
-1.84088
-1.87932
-1.6086
-1.53595
-1.31678
-1.13339
-0.933886
-0.729018
-0.521545
-0.31324
-0.104513
61.2251
61.2258
61.2356
61.255
61.2845
61.3245
61.3794
61.4422
61.5361
61.6165
61.737
61.8154
61.8972
-1.95937
-1.84615
-1.8842
-1.61317
-1.54017
-1.32046
-1.13659
-0.93655
-0.73111
-0.523049
-0.314147
-0.104817
61.2251
61.2254
61.2348
61.2541
61.2835
61.3234
61.3784
61.4418
61.5363
61.6182
61.7404
61.8217
61.9054
-1.96344
-1.84961
-1.88747
-1.61626
-1.54302
-1.32294
-1.13876
-0.938357
-0.732527
-0.524068
-0.314761
-0.105022
61.2309
61.2261
61.2346
61.2538
61.283
61.323
61.378
61.4417
61.5365
61.6192
61.7428
61.8253
61.91
-1.96581
-1.85197
-1.88909
-1.61793
-1.5445
-1.32417
-1.13987
-0.939281
-0.733247
-0.524585
-0.315072
-0.105125
61.2798
61.2783
61.2911
61.3144
61.3466
61.3854
61.4353
61.4714
61.5472
61.5585
61.6472
61.656
61.6953
-1.76188
-1.65424
-1.69431
-1.44025
-1.37679
-1.17769
-1.01151
-0.831976
-0.648503
-0.463326
-0.277954
-0.092624
61.2733
61.2766
61.2905
61.3138
61.3461
61.385
61.435
61.4714
61.547
61.5602
61.6438
61.6555
61.6962
-1.76259
-1.65529
-1.69604
-1.44159
-1.37813
-1.17888
-1.0125
-0.832791
-0.649139
-0.463781
-0.278227
-0.0927154
61.271
61.275
61.2892
61.3126
61.345
61.384
61.4341
61.4709
61.5465
61.5612
61.6438
61.6561
61.698
-1.76539
-1.65869
-1.69947
-1.44456
-1.38089
-1.18127
-1.01452
-0.834454
-0.650434
-0.464705
-0.278781
-0.0929003
61.2672
61.2727
61.2873
61.3108
61.3433
61.3824
61.4326
61.4701
61.5457
61.5622
61.6434
61.6573
61.7
-1.77012
-1.66363
-1.70455
-1.44897
-1.38501
-1.18481
-1.01755
-0.836939
-0.652369
-0.466087
-0.27961
-0.0931767
61.2639
61.27
61.2849
61.3085
61.341
61.3803
61.4305
61.4688
61.5446
61.5632
61.6433
61.659
61.7023
-1.77666
-1.67034
-1.71121
-1.45483
-1.39044
-1.18948
-1.02154
-0.840216
-0.654921
-0.46791
-0.280704
-0.0935414
61.2605
61.267
61.282
61.3057
61.3382
61.3776
61.428
61.4672
61.5431
61.5641
61.6433
61.661
61.7049
-1.78487
-1.67856
-1.71935
-1.462
-1.3971
-1.1952
-1.02644
-0.844241
-0.658055
-0.470149
-0.282048
-0.0939897
61.257
61.2637
61.2788
61.3025
61.3349
61.3744
61.4249
61.4652
61.5413
61.5649
61.6434
61.6634
61.7078
-1.7946
-1.68825
-1.72885
-1.47043
-1.40489
-1.20191
-1.03219
-0.848961
-0.661732
-0.472777
-0.283626
-0.094516
61.2535
61.2602
61.2753
61.2989
61.3313
61.3708
61.4214
61.4628
61.5392
61.5655
61.6437
61.6661
61.7112
-1.8057
-1.69919
-1.73957
-1.47996
-1.4137
-1.2095
-1.0387
-0.854311
-0.665902
-0.475758
-0.285416
-0.0951132
61.2498
61.2566
61.2715
61.295
61.3272
61.3668
61.4175
61.46
61.5368
61.566
61.644
61.6693
61.7151
-1.81798
-1.71124
-1.75134
-1.49046
-1.42341
-1.21787
-1.04588
-0.860218
-0.670507
-0.479052
-0.287394
-0.0957734
61.2461
61.2528
61.2676
61.2908
61.3229
61.3625
61.4132
61.4568
61.5342
61.5663
61.6443
61.6728
61.7194
-1.83123
-1.72418
-1.76398
-1.50176
-1.43386
-1.22689
-1.05363
-0.866596
-0.675483
-0.482611
-0.289533
-0.0964872
61.2423
61.2489
61.2635
61.2865
61.3183
61.3578
61.4086
61.4534
61.5313
61.5665
61.6447
61.6767
61.7243
-1.84523
-1.73782
-1.77729
-1.51369
-1.44491
-1.23644
-1.06183
-0.873353
-0.680756
-0.486386
-0.291801
-0.0972446
61.2386
61.245
61.2593
61.282
61.3136
61.353
61.4038
61.4497
61.5282
61.5665
61.6453
61.6809
61.7299
-1.85976
-1.75193
-1.79106
-1.52606
-1.45637
-1.24636
-1.07036
-0.880386
-0.686249
-0.490318
-0.294165
-0.0980343
61.2349
61.2411
61.2551
61.2775
61.3087
61.348
61.3988
61.4458
61.5251
61.5664
61.6461
61.6855
61.7361
-1.87457
-1.76628
-1.80507
-1.53867
-1.46806
-1.25649
-1.07909
-0.887588
-0.691877
-0.494349
-0.296589
-0.0988442
61.2313
61.2374
61.2511
61.273
61.3039
61.3429
61.3937
61.4419
61.522
61.5663
61.6475
61.6908
61.7433
-1.88944
-1.78064
-1.8191
-1.55133
-1.47981
-1.26669
-1.08788
-0.894845
-0.69755
-0.498415
-0.299035
-0.0996617
61.2279
61.2338
61.2471
61.2687
61.2991
61.3379
61.3887
61.4379
61.5189
61.5663
61.6493
61.6967
61.7515
-1.90411
-1.79479
-1.83291
-1.56382
-1.49143
-1.27678
-1.09659
-0.90204
-0.703179
-0.502451
-0.301464
-0.100474
61.2247
61.2304
61.2434
61.2645
61.2945
61.333
61.3838
61.4341
61.5159
61.5664
61.6518
61.7033
61.7607
-1.91836
-1.80848
-1.84629
-1.57595
-1.50271
-1.2866
-1.10507
-0.909055
-0.708671
-0.506389
-0.303835
-0.101266
61.2219
61.2273
61.2399
61.2606
61.2901
61.3284
61.3791
61.4304
61.5132
61.5667
61.6549
61.7106
61.7709
-1.93196
-1.82151
-1.85902
-1.58752
-1.51348
-1.29599
-1.11319
-0.915772
-0.713933
-0.510165
-0.306108
-0.102027
61.2194
61.2245
61.2367
61.257
61.2861
61.3241
61.3747
61.427
61.5108
61.5672
61.6584
61.7185
61.7819
-1.9447
-1.83367
-1.87089
-1.59834
-1.52356
-1.30478
-1.1208
-0.922079
-0.718875
-0.513712
-0.308245
-0.102742
61.2173
61.2222
61.2339
61.2537
61.2824
61.3201
61.3707
61.424
61.5087
61.5679
61.6624
61.7265
61.7932
-1.95639
-1.84479
-1.88172
-1.60824
-1.53279
-1.31284
-1.12778
-0.927865
-0.723412
-0.516971
-0.310208
-0.103399
61.2158
61.2203
61.2315
61.2509
61.2792
61.3166
61.3672
61.4213
61.5069
61.5686
61.6664
61.7345
61.8045
-1.96684
-1.85466
-1.89132
-1.61704
-1.54099
-1.32002
-1.134
-0.933031
-0.727465
-0.519882
-0.311963
-0.103987
61.2149
61.2188
61.2296
61.2485
61.2764
61.3136
61.3641
61.419
61.5054
61.5693
61.6701
61.7419
61.8151
-1.9759
-1.8632
-1.89956
-1.62464
-1.54806
-1.3262
-1.13937
-0.937486
-0.730961
-0.522394
-0.313477
-0.104494
61.2145
61.2179
61.228
61.2466
61.2742
61.3112
61.3617
61.4172
61.5042
61.5699
61.6734
61.7483
61.8244
-1.98346
-1.8702
-1.90628
-1.63087
-1.55385
-1.33128
-1.14377
-0.94115
-0.733838
-0.524462
-0.314724
-0.104911
61.216
61.2175
61.2269
61.2452
61.2725
61.3094
61.3598
61.4158
61.5034
61.5705
61.6759
61.7534
61.832
-1.98941
-1.87571
-1.91142
-1.63568
-1.5583
-1.33517
-1.14716
-0.943961
-0.736044
-0.526048
-0.315681
-0.105231
61.2159
61.2171
61.2261
61.2442
61.2714
61.3081
61.3585
61.4148
61.5028
61.5709
61.6771
61.757
61.8372
-1.99366
-1.87934
-1.91486
-1.63893
-1.56131
-1.33778
-1.14945
-0.945866
-0.73754
-0.527123
-0.316328
-0.105448
61.2216
61.2178
61.2259
61.2438
61.2709
61.3076
61.3579
61.4144
61.5026
61.5713
61.6779
61.7587
61.8399
-1.99612
-1.88178
-1.91656
-1.64068
-1.56286
-1.33908
-1.15061
-0.94684
-0.738299
-0.527668
-0.316657
-0.105557
61.2702
61.2693
61.2821
61.3052
61.337
61.3755
61.425
61.4612
61.5363
61.549
61.6362
61.6469
61.6867
-1.78838
-1.67905
-1.7158
-1.45732
-1.3889
-1.18684
-1.01673
-0.834715
-0.649543
-0.463381
-0.277627
-0.0923805
61.2636
61.2676
61.2815
61.3046
61.3365
61.3751
61.4246
61.4611
61.5361
61.5506
61.6326
61.6463
61.6877
-1.7892
-1.68023
-1.71764
-1.45875
-1.39032
-1.1881
-1.01777
-0.835573
-0.650211
-0.463857
-0.277911
-0.0924755
61.2613
61.266
61.2802
61.3034
61.3354
61.374
61.4236
61.4605
61.5354
61.5514
61.6324
61.6467
61.6893
-1.79223
-1.68386
-1.7213
-1.4619
-1.39325
-1.19063
-1.01991
-0.837323
-0.651571
-0.464827
-0.278492
-0.092669
61.2575
61.2636
61.2782
61.3015
61.3335
61.3722
61.4219
61.4594
61.5343
61.5521
61.6315
61.6476
61.691
-1.7973
-1.68916
-1.72672
-1.4666
-1.39761
-1.19437
-1.0231
-0.839939
-0.653604
-0.466277
-0.279361
-0.0929587
61.2542
61.2609
61.2758
61.2991
61.3311
61.3699
61.4196
61.4578
61.5327
61.5525
61.6308
61.6486
61.6928
-1.8043
-1.69635
-1.73384
-1.47283
-1.40338
-1.19931
-1.02732
-0.84339
-0.656287
-0.468192
-0.280509
-0.0933414
61.2508
61.2578
61.2729
61.2962
61.3282
61.367
61.4167
61.4557
61.5307
61.5528
61.6299
61.6499
61.6946
-1.81308
-1.70516
-1.74253
-1.48047
-1.41044
-1.20537
-1.03249
-0.847632
-0.659586
-0.470547
-0.281922
-0.0938124
61.2473
61.2545
61.2696
61.2929
61.3247
61.3636
61.4132
61.4531
61.5282
61.5526
61.6289
61.6513
61.6966
-1.82349
-1.71553
-1.75269
-1.48944
-1.41872
-1.21248
-1.03857
-0.852611
-0.66346
-0.473313
-0.283582
-0.0943659
61.2437
61.2509
61.2659
61.2891
61.3208
61.3596
61.4092
61.45
61.5252
61.552
61.6277
61.6527
61.6985
-1.83536
-1.72723
-1.76415
-1.4996
-1.42809
-1.22053
-1.04545
-0.858262
-0.667858
-0.476455
-0.285468
-0.0949948
61.24
61.2472
61.2621
61.285
61.3165
61.3552
61.4047
61.4463
61.5218
61.551
61.626
61.654
61.7005
-1.84847
-1.74012
-1.77674
-1.51078
-1.43841
-1.22942
-1.05306
-0.864508
-0.672722
-0.47993
-0.287554
-0.095691
61.2362
61.2433
61.258
61.2807
61.3119
61.3504
61.3997
61.4422
61.5178
61.5494
61.6238
61.6551
61.7023
-1.86262
-1.75397
-1.79027
-1.52283
-1.44954
-1.23901
-1.06128
-0.871261
-0.677983
-0.483691
-0.289813
-0.0964448
61.2324
61.2393
61.2538
61.2761
61.307
61.3452
61.3944
61.4375
61.5134
61.5472
61.6211
61.6557
61.7039
-1.87757
-1.76856
-1.80451
-1.53556
-1.46131
-1.24917
-1.06999
-0.878423
-0.683567
-0.487684
-0.292212
-0.0972457
61.2286
61.2353
61.2495
61.2714
61.3019
61.3398
61.3886
61.4324
61.5086
61.5444
61.618
61.6559
61.7052
-1.89307
-1.78365
-1.81925
-1.54876
-1.47353
-1.25973
-1.07906
-0.885888
-0.689391
-0.49185
-0.294716
-0.098082
61.2248
61.2314
61.2452
61.2667
61.2966
61.3342
61.3827
61.427
61.5035
61.541
61.6145
61.6557
61.7064
-1.90887
-1.799
-1.83425
-1.56223
-1.48601
-1.27054
-1.08835
-0.893542
-0.695365
-0.496126
-0.297287
-0.0989409
61.2212
61.2275
61.2409
61.262
61.2914
61.3284
61.3766
61.4213
61.4981
61.5371
61.6107
61.6552
61.7074
-1.92472
-1.81435
-1.84927
-1.57575
-1.49856
-1.28142
-1.09772
-0.901263
-0.701397
-0.500445
-0.299884
-0.099809
61.2177
61.2238
61.2368
61.2574
61.2862
61.3228
61.3704
61.4156
61.4925
61.5329
61.607
61.6545
61.7086
-1.94035
-1.82945
-1.86406
-1.5891
-1.51097
-1.29219
-1.10701
-0.908927
-0.707388
-0.504737
-0.302466
-0.100672
61.2145
61.2204
61.2329
61.253
61.2812
61.3172
61.3643
61.4098
61.487
61.5285
61.6034
61.654
61.71
-1.95551
-1.84407
-1.87838
-1.60206
-1.52303
-1.30268
-1.11606
-0.916408
-0.713239
-0.508931
-0.30499
-0.101517
61.2116
61.2172
61.2293
61.2488
61.2764
61.3118
61.3585
61.4042
61.4816
61.5242
61.6
61.6537
61.7119
-1.96998
-1.85798
-1.892
-1.61442
-1.53456
-1.31272
-1.12473
-0.923578
-0.718851
-0.512956
-0.307414
-0.102327
61.209
61.2144
61.226
61.2449
61.2719
61.3068
61.353
61.3989
61.4765
61.5201
61.5971
61.6536
61.7141
-1.98351
-1.87095
-1.9047
-1.62598
-1.54534
-1.32213
-1.13287
-0.930314
-0.724127
-0.516742
-0.309694
-0.10309
61.2069
61.2119
61.2231
61.2415
61.2679
61.3022
61.3479
61.394
61.4717
61.5162
61.5945
61.6537
61.7166
-1.99591
-1.88279
-1.91628
-1.63656
-1.55522
-1.33075
-1.14034
-0.9365
-0.728975
-0.520222
-0.31179
-0.103792
61.2054
61.21
61.2206
61.2384
61.2643
61.2981
61.3433
61.3896
61.4674
61.5126
61.5922
61.6537
61.7189
-2.00699
-1.8933
-1.92654
-1.64597
-1.564
-1.33844
-1.147
-0.942026
-0.733309
-0.523333
-0.313666
-0.10442
61.2044
61.2085
61.2185
61.2359
61.2612
61.2946
61.3394
61.3858
61.4637
61.5094
61.5901
61.6535
61.7207
-2.01659
-1.90238
-1.93534
-1.65408
-1.57157
-1.34507
-1.15275
-0.946794
-0.737049
-0.526021
-0.315285
-0.104963
61.204
61.2075
61.2169
61.2338
61.2587
61.2917
61.3362
61.3826
61.4606
61.5067
61.5879
61.6529
61.7217
-2.02458
-1.90983
-1.94252
-1.66073
-1.57777
-1.3505
-1.15747
-0.950717
-0.740129
-0.528234
-0.31662
-0.10541
61.2054
61.2071
61.2158
61.2323
61.2569
61.2895
61.3337
61.3802
61.458
61.5046
61.586
61.6518
61.7219
-2.03087
-1.91567
-1.948
-1.66586
-1.58253
-1.35467
-1.1611
-0.953727
-0.742492
-0.529932
-0.317644
-0.105753
61.2054
61.2066
61.2149
61.2312
61.2556
61.288
61.332
61.3786
61.4562
61.5031
61.5839
61.6505
61.7211
-2.03535
-1.91952
-1.95168
-1.66934
-1.58575
-1.35748
-1.16355
-0.955767
-0.744093
-0.531083
-0.318338
-0.105985
61.211
61.2074
61.2147
61.2308
61.2551
61.2874
61.3313
61.3778
61.4553
61.5027
61.5827
61.6461
61.72
-2.03793
-1.92207
-1.9535
-1.67119
-1.58741
-1.35888
-1.16481
-0.956805
-0.744907
-0.531668
-0.318691
-0.106103
61.2591
61.2584
61.2711
61.2939
61.3252
61.3632
61.4121
61.4484
61.5228
61.5369
61.6226
61.6353
61.6756
-1.82227
-1.7103
-1.74263
-1.47852
-1.40375
-1.19789
-1.02289
-0.837787
-0.650531
-0.463207
-0.277061
-0.0920196
61.2525
61.2567
61.2704
61.2932
61.3247
61.3627
61.4117
61.4482
61.5224
61.5384
61.6188
61.6346
61.6765
-1.82321
-1.71162
-1.74462
-1.48008
-1.40527
-1.19924
-1.024
-0.838697
-0.651238
-0.463709
-0.27736
-0.092119
61.2501
61.2551
61.2691
61.292
61.3234
61.3615
61.4104
61.4474
61.5215
61.5389
61.6183
61.6347
61.6779
-1.82653
-1.71557
-1.74857
-1.48347
-1.40841
-1.20193
-1.02627
-0.840554
-0.652678
-0.464735
-0.277973
-0.0923231
61.2463
61.2526
61.2671
61.29
61.3215
61.3596
61.4085
61.446
61.52
61.5392
61.6169
61.6351
61.6792
-1.83205
-1.72134
-1.75443
-1.48853
-1.41309
-1.20593
-1.02967
-0.843333
-0.654834
-0.466271
-0.278893
-0.0926293
61.243
61.2498
61.2646
61.2875
61.319
61.3571
61.4059
61.444
61.5179
61.539
61.6153
61.6355
61.6803
-1.83965
-1.72914
-1.76214
-1.49524
-1.41927
-1.21122
-1.03416
-0.847001
-0.657681
-0.4683
-0.280109
-0.0930343
61.2395
61.2467
61.2616
61.2845
61.3158
61.3539
61.4026
61.4413
61.5152
61.5383
61.6134
61.6358
61.6812
-1.84918
-1.73869
-1.77155
-1.50347
-1.42685
-1.2177
-1.03968
-0.851516
-0.661186
-0.470799
-0.281607
-0.0935335
61.236
61.2433
61.2582
61.281
61.3121
61.3501
61.3987
61.438
61.5119
61.537
61.611
61.6359
61.6817
-1.86047
-1.74994
-1.78255
-1.51313
-1.43574
-1.22531
-1.04617
-0.856821
-0.665307
-0.473738
-0.28337
-0.094121
61.2324
61.2397
61.2545
61.2771
61.3079
61.3457
61.3941
61.434
61.5078
61.5349
61.6078
61.6354
61.6818
-1.87334
-1.76263
-1.79497
-1.52408
-1.44581
-1.23395
-1.05354
-0.862851
-0.669992
-0.477081
-0.285375
-0.0947897
61.2286
61.2358
61.2505
61.2728
61.3033
61.3408
61.3889
61.4293
61.5031
61.532
61.6035
61.6343
61.6811
-1.88755
-1.7766
-1.80861
-1.53615
-1.45693
-1.24349
-1.06168
-0.869524
-0.675181
-0.480784
-0.287598
-0.095531
61.2248
61.2319
61.2463
61.2682
61.2983
61.3355
61.3831
61.4239
61.4975
61.5279
61.5981
61.6319
61.6793
-1.90288
-1.79162
-1.82328
-1.54916
-1.46892
-1.25381
-1.0705
-0.876752
-0.680804
-0.484799
-0.290008
-0.0963352
61.2209
61.2278
61.2419
61.2634
61.293
61.3297
61.3767
61.4177
61.4912
61.5226
61.5913
61.628
61.6761
-1.91907
-1.80743