/*--------------------------------*- C++ -*----------------------------------*\
| =========                 |                                                 |
| \\      /  F ield         | OpenFOAM: The Open Source CFD Toolbox           |
|  \\    /   O peration     | Version:  2306                                  |
|   \\  /    A nd           | Website:  www.openfoam.com                      |
|    \\/     M anipulation  |                                                 |
\*---------------------------------------------------------------------------*/
FoamFile
{
    version     2.0;
    format      ascii;
    arch        "LSB;label=32;scalar=64";
    class       volScalarField;
    location    "0.6";
    object      p;
}
// * * * * * * * * * * * * * * * * * * * * * * * * * * * * * * * * * * * * * //

dimensions      [0 2 -2 0 0 0 0];

internalField   nonuniform List<scalar> 
288632
(
35.58
35.5729
35.5818
35.6013
35.6291
35.664
35.7048
35.7485
35.8013
35.6538
36.3324
35.6181
35.8935
0.483792
0.706007
0.0104361
0.190696
0.16854
0.149557
0.129239
0.107516
0.08461
0.0608029
0.0360067
0.0117559
35.5746
35.5712
35.5809
35.6005
35.6283
35.6633
35.7041
35.7479
35.8006
35.6541
36.3308
35.6164
35.8938
0.483732
0.707875
0.00976538
0.190549
0.168195
0.14921
0.128935
0.107265
0.0844137
0.0606627
0.0359215
0.0117266
35.5707
35.5688
35.579
35.5988
35.6267
35.6618
35.7026
35.7464
35.7992
35.656
36.3288
35.6152
35.8932
0.483599
0.705663
0.00852285
0.189517
0.167368
0.148496
0.128326
0.106764
0.084023
0.0603838
0.0357539
0.0116704
35.5668
35.5657
35.5763
35.5962
35.6243
35.6594
35.7003
35.7442
35.7971
35.6587
36.3252
35.614
35.8923
0.483435
0.705559
0.00723093
0.188291
0.166179
0.147438
0.12742
0.106019
0.083443
0.0599698
0.0355058
0.0115876
35.5626
35.562
35.5729
35.593
35.621
35.6562
35.6973
35.7413
35.7942
35.6623
36.3205
35.6125
35.8909
0.481985
0.703484
0.00535693
0.186557
0.164601
0.146043
0.126228
0.10504
0.0826811
0.0594263
0.0351804
0.0114794
35.5581
35.5578
35.5689
35.589
35.6171
35.6524
35.6936
35.7378
35.7908
35.6666
36.3146
35.6106
35.8889
0.479738
0.701244
0.00312079
0.184401
0.162656
0.144331
0.124766
0.103839
0.0817473
0.0587604
0.0347819
0.0113469
35.5533
35.553
35.5642
35.5844
35.6125
35.6479
35.6893
35.7338
35.7869
35.6719
36.3076
35.6085
35.8866
0.47698
0.698489
0.000524486
0.181853
0.16037
0.142322
0.123053
0.102434
0.0806542
0.0579811
0.0343156
0.0111919
35.5481
35.5479
35.5591
35.5792
35.6073
35.6428
35.6845
35.7294
35.7827
35.6781
36.2995
35.6065
35.8842
0.473755
0.695292
-0.0024051
0.17895
0.157771
0.140043
0.121111
0.100841
0.0794167
0.057099
0.0337879
0.0110167
35.5427
35.5425
35.5536
35.5736
35.6017
35.6373
35.6793
35.7248
35.7785
35.6852
36.2903
35.6046
35.8818
0.470125
0.691705
-0.00563858
0.175733
0.154897
0.137526
0.118968
0.0990846
0.0780518
0.0561264
0.0332061
0.0108235
35.537
35.5368
35.5477
35.5676
35.5957
35.6314
35.6738
35.7201
35.7744
35.6934
36.2803
35.6032
35.8798
0.466151
0.687792
-0.00913541
0.17225
0.151789
0.134804
0.116653
0.0971883
0.0765791
0.0550772
0.0325787
0.0106152
35.5313
35.5309
35.5417
35.5614
35.5893
35.6253
35.6682
35.7154
35.7707
35.7027
36.2697
35.6025
35.8785
0.461891
0.683611
-0.0128544
0.168552
0.14849
0.131919
0.1142
0.0951799
0.0750199
0.0539667
0.0319147
0.0103949
35.5254
35.5249
35.5355
35.555
35.5828
35.6189
35.6625
35.711
35.7676
35.713
36.2588
35.6029
35.8783
0.457416
0.679232
-0.0167423
0.164696
0.145052
0.128913
0.111645
0.0930893
0.0733973
0.0528114
0.0312241
0.0101656
35.5196
35.5189
35.5293
35.5485
35.5763
35.6126
35.657
35.707
35.7654
35.7244
36.2481
35.6046
35.8797
0.45279
0.674725
-0.020741
0.16074
0.141525
0.125831
0.109028
0.0909482
0.0717362
0.0516291
0.0305173
0.00993107
35.5139
35.513
35.5231
35.5421
35.5697
35.6063
35.6516
35.7034
35.7642
35.7369
36.238
35.608
35.883
0.448093
0.670161
-0.0247928
0.156746
0.137964
0.122722
0.106388
0.0887898
0.0700624
0.050438
0.0298055
0.00969479
35.5084
35.5074
35.5171
35.5358
35.5633
35.6002
35.6464
35.7004
35.764
35.7505
36.2289
35.6134
35.8887
0.44337
0.665605
-0.0288299
0.152777
0.134427
0.119634
0.103768
0.0866487
0.0684024
0.0492571
0.0290998
0.00946058
35.5032
35.502
35.5114
35.5297
35.5571
35.5943
35.6417
35.6979
35.7649
35.7649
36.2213
35.621
35.8971
0.438731
0.661131
-0.0327849
0.148897
0.130971
0.116617
0.101211
0.0845594
0.0667833
0.0481056
0.0284118
0.00923227
35.4984
35.497
35.5061
35.5241
35.5513
35.5888
35.6373
35.6961
35.7668
35.7799
36.2155
35.6308
35.9081
0.434216
0.656811
-0.0365881
0.14517
0.127653
0.113723
0.098758
0.0825567
0.0652318
0.0470025
0.0277529
0.00901365
35.4941
35.4925
35.5012
35.5188
35.5459
35.5837
35.6335
35.6948
35.7696
35.7953
36.2115
35.6427
35.9216
0.429938
0.652708
-0.0401697
0.141658
0.124528
0.110999
0.0964518
0.0806746
0.0637742
0.0459664
0.027134
0.00880839
35.4904
35.4885
35.4968
35.5141
35.541
35.5792
35.6301
35.6941
35.7731
35.8107
36.2093
35.6562
35.9373
0.425939
0.648882
-0.0434607
0.138418
0.121651
0.108494
0.0943319
0.0789455
0.0624355
0.045015
0.0265659
0.00862003
35.4874
35.4852
35.493
35.5099
35.5367
35.5752
35.6273
35.6938
35.7769
35.8255
36.2087
35.6708
35.9544
0.422284
0.645389
-0.046395
0.135507
0.119072
0.106251
0.0924357
0.0773996
0.0612392
0.0441651
0.0260585
0.00845184
35.4852
35.4825
35.4899
35.5064
35.5331
35.5719
35.625
35.6938
35.7808
35.8393
36.2093
35.6858
35.9721
0.419029
0.642226
-0.0489129
0.132976
0.116836
0.104311
0.0907972
0.0760646
0.0602064
0.0434315
0.0256207
0.00830681
35.4839
35.4806
35.4875
35.5036
35.5302
35.5692
35.6232
35.694
35.7845
35.8514
36.2107
35.7004
35.9892
0.416462
0.640235
-0.0509058
0.130874
0.114986
0.10271
0.0894463
0.0749646
0.0593558
0.0428276
0.0252604
0.00818755
35.4837
35.4795
35.4857
35.5016
35.528
35.5672
35.622
35.6944
35.7876
35.8613
36.2125
35.7135
36.0047
0.414983
0.636502
-0.0526499
0.129129
0.11355
0.101477
0.0884082
0.0741197
0.0587028
0.0423641
0.0249841
0.00809626
35.4847
35.4791
35.4846
35.5002
35.5265
35.5659
35.6212
35.6947
35.79
35.8685
36.2137
35.7235
36.0174
0.413504
0.63696
-0.0534467
0.12822
0.11262
0.100644
0.0877027
0.0735458
0.0582594
0.0420495
0.024797
0.00803476
35.4888
35.4794
35.4842
35.4996
35.5259
35.5654
35.6209
35.6951
35.7914
35.8727
36.2154
35.728
36.0263
0.411374
0.633492
-0.053796
0.127308
0.112051
0.100202
0.0873409
0.0732532
0.0580338
0.0418895
0.0247026
0.00800451
35.5739
35.5704
35.58
35.5995
35.6273
35.6622
35.7028
35.7465
35.7991
35.6521
36.329
35.6151
35.8925
0.483717
0.706578
0.0112116
0.18984
0.167989
0.149201
0.129036
0.107435
0.0846144
0.060856
0.0360693
0.0117887
35.5684
35.5688
35.5791
35.5987
35.6265
35.6615
35.7022
35.7458
35.7984
35.6533
36.3252
35.6135
35.8926
0.483717
0.708347
0.0105303
0.189673
0.167629
0.148844
0.128727
0.10718
0.0844153
0.0607137
0.035983
0.0117591
35.5646
35.5664
35.5772
35.597
35.6249
35.6599
35.7006
35.7443
35.797
35.6553
36.3224
35.6121
35.8921
0.483593
0.706123
0.00927684
0.188633
0.166793
0.14812
0.128108
0.106671
0.0840191
0.060431
0.0358133
0.0117022
35.5607
35.5632
35.5745
35.5944
35.6224
35.6575
35.6983
35.7421
35.7948
35.6581
36.3185
35.6107
35.8912
0.483438
0.705948
0.0079475
0.187373
0.165582
0.147045
0.127188
0.105916
0.0834309
0.0600115
0.035562
0.0116184
35.5565
35.5595
35.571
35.5911
35.6191
35.6542
35.6952
35.7391
35.7918
35.6615
36.3135
35.609
35.8897
0.481929
0.70386
0.00604457
0.185609
0.163976
0.145627
0.125978
0.104922
0.0826582
0.0594605
0.0352322
0.0115088
35.552
35.5552
35.5669
35.5871
35.6151
35.6503
35.6914
35.7354
35.7882
35.6657
36.3073
35.6069
35.8877
0.47966
0.701566
0.00377091
0.183413
0.161998
0.143887
0.124494
0.103704
0.0817112
0.0587855
0.0348284
0.0113746
35.5471
35.5505
35.5623
35.5824
35.6105
35.6457
35.6869
35.7312
35.784
35.6708
36.2998
35.6045
35.8852
0.476859
0.69875
0.00112802
0.180819
0.159671
0.141844
0.122754
0.102277
0.0806023
0.0579953
0.0343558
0.0112176
35.5419
35.5453
35.5571
35.5772
35.6052
35.6405
35.682
35.7266
35.7796
35.6768
36.2912
35.602
35.8826
0.473585
0.695483
-0.00185596
0.177862
0.157028
0.139527
0.120781
0.100661
0.0793467
0.0571008
0.0338209
0.01104
35.5365
35.5398
35.5515
35.5715
35.5995
35.6348
35.6766
35.7218
35.7751
35.6837
36.2813
35.5996
35.8799
0.469898
0.69182
-0.00515088
0.174586
0.154104
0.136966
0.118603
0.0988768
0.0779616
0.0561143
0.0332311
0.0108443
35.5308
35.5341
35.5456
35.5655
35.5933
35.6288
35.6709
35.7168
35.7707
35.6916
36.2705
35.5976
35.8776
0.46586
0.687823
-0.00871587
0.171039
0.15094
0.134198
0.11625
0.0969508
0.0764667
0.0550498
0.0325948
0.0106332
35.525
35.5281
35.5395
35.5591
35.5869
35.6225
35.665
35.7119
35.7666
35.7004
36.2589
35.5962
35.8758
0.461535
0.683551
-0.0125089
0.167272
0.147582
0.131262
0.113756
0.0949106
0.0748836
0.0539228
0.0319212
0.0104098
35.5191
35.5221
35.5332
35.5526
35.5802
35.6159
35.6591
35.7071
35.7631
35.7103
36.2469
35.5957
35.8751
0.456986
0.679076
-0.0164755
0.163342
0.144081
0.128203
0.111159
0.0927862
0.0732359
0.0527502
0.0312205
0.0101773
35.5132
35.5161
35.5269
35.546
35.5735
35.6094
35.6532
35.7026
35.7604
35.7211
36.2349
35.5964
35.876
0.452286
0.67447
-0.0205562
0.15931
0.140489
0.125065
0.108496
0.09061
0.0715486
0.0515498
0.0305033
0.00993934
35.5075
35.5102
35.5207
35.5395
35.5668
35.6028
35.6474
35.6986
35.7586
35.733
36.2234
35.5988
35.8787
0.4475
0.669802
-0.0246911
0.155239
0.136862
0.121899
0.105811
0.0884158
0.0698479
0.0503403
0.0297807
0.00969958
35.5019
35.5044
35.5147
35.5331
35.5602
35.5964
35.642
35.6951
35.7578
35.7457
36.2129
35.6031
35.8837
0.442708
0.665145
-0.0288131
0.151192
0.133258
0.118754
0.103145
0.0862384
0.068161
0.0491409
0.0290643
0.00946188
35.4967
35.499
35.5089
35.5269
35.5538
35.5903
35.6368
35.6921
35.7581
35.7593
36.2038
35.6096
35.8913
0.437977
0.660573
-0.0328527
0.147234
0.129735
0.115681
0.100542
0.0841134
0.0665151
0.047971
0.0283655
0.00923011
35.4919
35.494
35.5034
35.5211
35.5478
35.5845
35.6321
35.6897
35.7593
35.7735
36.1964
35.6183
35.9016
0.43341
0.656158
-0.0367387
0.143432
0.126352
0.112732
0.0980445
0.082076
0.0649377
0.0468499
0.0276961
0.00900812
35.4876
35.4894
35.4985
35.5158
35.5422
35.5792
35.6278
35.6879
35.7615
35.788
36.191
35.629
35.9144
0.429051
0.651965
-0.0403995
0.139848
0.123166
0.109957
0.0956962
0.0801609
0.0634554
0.0457968
0.0270674
0.00879967
35.4838
35.4854
35.494
35.5109
35.5372
35.5744
35.6241
35.6867
35.7643
35.8024
36.1875
35.6415
35.9295
0.424991
0.648059
-0.0437645
0.136542
0.120231
0.107404
0.0935372
0.078401
0.0620937
0.0448296
0.0264901
0.00860833
35.4808
35.482
35.4902
35.5067
35.5328
35.5702
35.6209
35.6858
35.7674
35.8163
36.1856
35.6552
35.9461
0.421266
0.644495
-0.0467655
0.133572
0.1176
0.105117
0.0916057
0.0768274
0.0608767
0.0439653
0.0259743
0.00843746
35.4786
35.4793
35.487
35.5031
35.529
35.5666
35.6183
35.6854
35.7707
35.8292
36.1851
35.6695
35.9633
0.417973
0.641271
-0.0493412
0.130989
0.11532
0.103139
0.0899365
0.0754682
0.0598259
0.0432194
0.0255293
0.00829007
35.4773
35.4774
35.4846
35.5003
35.526
35.5638
35.6163
35.6852
35.7739
35.8406
36.1856
35.6837
35.9802
0.415349
0.639221
-0.0513893
0.128841
0.113433
0.101507
0.0885602
0.0743482
0.0589603
0.0426051
0.0251629
0.00816883
35.477
35.4763
35.4828
35.4982
35.5237
35.5616
35.6148
35.6853
35.7766
35.85
36.1867
35.6962
35.9954
0.413844
0.635483
-0.0531587
0.127072
0.11197
0.100251
0.0875024
0.0734879
0.0582958
0.0421337
0.024882
0.00807602
35.478
35.4759
35.4817
35.4968
35.5222
35.5602
35.6139
35.6854
35.7786
35.8569
36.1872
35.7057
36.008
0.412338
0.63589
-0.0539854
0.126134
0.111014
0.0993992
0.0867835
0.0729035
0.0578446
0.0418137
0.0246917
0.00801349
35.4821
35.4761
35.4813
35.4962
35.5215
35.5597
35.6135
35.6857
35.7799
35.8612
36.1876
35.7114
36.0167
0.410214
0.632514
-0.0543436
0.12522
0.110442
0.0989541
0.0864156
0.0726057
0.057615
0.0416509
0.0245958
0.00798275
35.5683
35.5663
35.5764
35.5959
35.6236
35.6583
35.6988
35.7422
35.7946
35.6502
36.3236
35.6106
35.8889
0.483394
0.704568
0.0130941
0.188245
0.167114
0.1487
0.128824
0.107436
0.0847518
0.0610554
0.0362543
0.0118769
35.5629
35.5647
35.5754
35.5951
35.6228
35.6576
35.6981
35.7415
35.7939
35.6514
36.319
35.6088
35.889
0.483419
0.706345
0.0124106
0.188054
0.166738
0.148331
0.128506
0.107173
0.0845471
0.0609094
0.0361659
0.0118466
35.5591
35.5622
35.5735
35.5933
35.6211
35.6559
35.6965
35.74
35.7924
35.6535
36.3156
35.6073
35.8886
0.483268
0.704098
0.0111331
0.186991
0.165877
0.147585
0.127869
0.10665
0.0841401
0.0606193
0.0359919
0.0117884
35.5551
35.5591
35.5707
35.5907
35.6186
35.6534
35.694
35.7375
35.7899
35.6562
36.3111
35.6056
35.8876
0.483088
0.703839
0.00974575
0.185674
0.164623
0.146476
0.126921
0.105873
0.0835358
0.0601887
0.0357341
0.0117026
35.5509
35.5553
35.5672
35.5873
35.6152
35.6501
35.6907
35.7343
35.7867
35.6595
36.3054
35.6035
35.8858
0.481506
0.70171
0.00778376
0.183848
0.162962
0.145013
0.125674
0.10485
0.0827417
0.059623
0.0353959
0.0115902
35.5463
35.551
35.5631
35.5832
35.6111
35.646
35.6867
35.7304
35.7827
35.6635
36.2983
35.6008
35.8833
0.479152
0.699305
0.00543166
0.181573
0.160917
0.143216
0.124144
0.103597
0.0817681
0.0589298
0.0349815
0.0114526
35.5414
35.5462
35.5583
35.5784
35.6062
35.6411
35.682
35.7259
35.7782
35.6682
36.2897
35.5977
35.8802
0.476243
0.696369
0.00269649
0.178885
0.158512
0.141107
0.12235
0.102128
0.0806278
0.058118
0.0344964
0.0112916
35.5362
35.5409
35.5531
35.5731
35.6008
35.6357
35.6767
35.7209
35.7732
35.6738
36.2796
35.5944
35.8767
0.472854
0.692966
-0.000395874
0.175821
0.155777
0.138714
0.120316
0.100463
0.0793362
0.0571987
0.0339472
0.0111095
35.5307
35.5354
35.5474
35.5672
35.5948
35.6298
35.6709
35.7155
35.768
35.6801
36.268
35.591
35.8731
0.469036
0.689152
-0.00381264
0.172426
0.152751
0.136068
0.118069
0.0986251
0.0779107
0.0561844
0.0333413
0.0109086
35.5249
35.5295
35.5414
35.561
35.5884
35.6234
35.6648
35.71
35.7629
35.6873
36.255
35.5878
35.8695
0.464849
0.68499
-0.00751331
0.168748
0.149476
0.133206
0.11564
0.0966398
0.0763716
0.0550894
0.0326873
0.0106918
35.519
35.5235
35.5351
35.5545
35.5817
35.6166
35.6584
35.7044
35.758
35.6953
36.2409
35.5849
35.8663
0.460364
0.680544
-0.0114513
0.164841
0.145999
0.13017
0.113065
0.0945358
0.0747409
0.0539297
0.0319948
0.0104623
35.5131
35.5174
35.5287
35.5478
35.5748
35.6097
35.6519
35.6989
35.7535
35.7042
36.226
35.5827
35.8638
0.455642
0.675885
-0.0155727
0.160763
0.142371
0.127004
0.110381
0.0923439
0.0730428
0.0527225
0.031274
0.0102233
35.5071
35.5113
35.5223
35.541
35.5677
35.6026
35.6453
35.6936
35.7497
35.7138
36.2107
35.5815
35.8626
0.450758
0.671086
-0.0198176
0.156577
0.138647
0.123756
0.10763
0.0900975
0.071303
0.051486
0.0305358
0.00997862
35.5013
35.5052
35.5159
35.5342
35.5607
35.5956
35.6389
35.6886
35.7467
35.7243
36.1956
35.5818
35.863
0.445791
0.666222
-0.0241215
0.152348
0.134886
0.120477
0.104852
0.0878313
0.0695486
0.0502394
0.0297917
0.00973194
35.4957
35.4994
35.5097
35.5276
35.5537
35.5887
35.6326
35.684
35.7447
35.7355
36.1813
35.5838
35.8656
0.440816
0.661368
-0.028415
0.148143
0.131146
0.117218
0.102094
0.0855814
0.0678075
0.0490027
0.0290535
0.00948725
35.4904
35.4939
35.5038
35.5212
35.547
35.582
35.6267
35.68
35.7436
35.7473
36.1684
35.588
35.8706
0.435911
0.656602
-0.0326256
0.14403
0.127488
0.114032
0.0993989
0.0833845
0.066108
0.0477958
0.0283333
0.00924855
35.4855
35.4887
35.4982
35.5152
35.5407
35.5757
35.6212
35.6765
35.7434
35.7596
36.1573
35.5943
35.8783
0.431165
0.651998
-0.0366789
0.140076
0.123974
0.110974
0.0968129
0.0812773
0.0644784
0.0466389
0.027643
0.00901982
35.4811
35.4841
35.4931
35.5096
35.5348
35.5698
35.6161
35.6735
35.744
35.7721
36.1482
35.6029
35.8886
0.426639
0.647627
-0.0405001
0.136348
0.120664
0.108094
0.0943798
0.0792957
0.0629464
0.0455515
0.0269943
0.00880493
35.4773
35.48
35.4885
35.5046
35.5294
35.5645
35.6116
35.6711
35.7454
35.7845
36.1413
35.6134
35.9012
0.422409
0.643555
-0.0440152
0.132908
0.117614
0.105444
0.0921421
0.077474
0.0615386
0.0445525
0.0263985
0.0086076
35.4742
35.4765
35.4846
35.5002
35.5246
35.5598
35.6077
35.6692
35.7471
35.7965
36.1364
35.6254
35.9156
0.418553
0.639842
-0.0471526
0.129817
0.114878
0.10307
0.0901394
0.0758446
0.0602799
0.0436595
0.025866
0.00843129
35.472
35.4738
35.4813
35.4964
35.5206
35.5558
35.6044
35.6678
35.7491
35.8076
36.1331
35.6382
35.9308
0.415125
0.636495
-0.049847
0.127129
0.112507
0.101016
0.0884081
0.0744367
0.0591928
0.0428886
0.0254063
0.00827915
35.4706
35.4718
35.4788
35.4934
35.5174
35.5526
35.6018
35.6668
35.7511
35.8174
36.1314
35.6512
35.946
0.412387
0.634306
-0.0520047
0.124892
0.110545
0.0993206
0.0869804
0.0732763
0.058297
0.0422535
0.0250279
0.00815398
35.4703
35.4706
35.4769
35.4912
35.5149
35.5502
35.5999
35.6662
35.7529
35.8255
36.1305
35.6627
35.9599
0.41081
0.630492
-0.0538417
0.123062
0.109025
0.098015
0.0858827
0.0723849
0.0576092
0.041766
0.0247376
0.00805813
35.4712
35.4702
35.4758
35.4898
35.5133
35.5486
35.5986
35.6659
35.7543
35.8316
36.1296
35.6715
35.9716
0.409241
0.630836
-0.0547279
0.122074
0.108026
0.0971288
0.0851365
0.0717792
0.0571421
0.0414351
0.0245409
0.00799353
35.4754
35.4704
35.4753
35.4891
35.5126
35.5479
35.5981
35.6659
35.7552
35.8355
36.1288
35.6766
35.9797
0.407068
0.627388
-0.0551227
0.121138
0.107436
0.0966685
0.084755
0.0714706
0.0569045
0.0412668
0.0244417
0.00796171
35.5619
35.5606
35.571
35.5905
35.618
35.6525
35.6927
35.7358
35.7879
35.6471
36.3149
35.6042
35.8829
0.482015
0.701896
0.0162253
0.185971
0.165927
0.148062
0.128607
0.107522
0.0850249
0.0614037
0.0365631
0.0120208
35.5565
35.559
35.57
35.5897
35.6172
35.6517
35.692
35.7351
35.7871
35.6484
36.3099
35.6023
35.8831
0.482006
0.703642
0.0155238
0.18575
0.165529
0.147675
0.128275
0.107248
0.0848121
0.0612522
0.0364715
0.0119895
35.5526
35.5565
35.5681
35.5879
35.6155
35.65
35.6902
35.7333
35.7853
35.6504
36.306
35.6004
35.8826
0.481844
0.701342
0.0142006
0.184641
0.164626
0.146895
0.12761
0.106703
0.0843889
0.0609509
0.0362912
0.0119292
35.5486
35.5533
35.5652
35.5852
35.6128
35.6473
35.6876
35.7307
35.7826
35.6528
36.3007
35.5983
35.8812
0.481621
0.700959
0.0127331
0.183252
0.163313
0.145736
0.126621
0.105893
0.0837603
0.0605037
0.0360238
0.0118403
35.5443
35.5494
35.5617
35.5817
35.6093
35.6438
35.684
35.7272
35.7789
35.6558
36.294
35.5957
35.8789
0.479881
0.69875
0.0106791
0.181326
0.161569
0.144204
0.125319
0.104828
0.0829341
0.059916
0.0356729
0.0117239
35.5397
35.545
35.5574
35.5774
35.6049
35.6394
35.6797
35.7228
35.7744
35.6595
36.2855
35.5922
35.8756
0.477396
0.696186
0.00821053
0.178931
0.159423
0.142323
0.123721
0.10352
0.0819207
0.0591954
0.0352427
0.0115812
35.5347
35.5402
35.5525
35.5725
35.5999
35.6343
35.6746
35.7178
35.7692
35.6637
36.2752
35.588
35.8714
0.474337
0.693068
0.0053348
0.176102
0.156897
0.140114
0.121846
0.101988
0.0807332
0.0583512
0.0347388
0.0114143
35.5294
35.5348
35.5471
35.5669
35.5942
35.6285
35.6688
35.7122
35.7635
35.6686
36.2629
35.5834
35.8666
0.470756
0.689457
0.0020787
0.172876
0.154025
0.137605
0.119718
0.100251
0.0793873
0.0573945
0.034168
0.0112252
35.5238
35.5291
35.5413
35.5609
35.5879
35.6221
35.6624
35.7061
35.7573
35.6742
36.2486
35.5784
35.8611
0.466727
0.685413
-0.0015232
0.169299
0.150845
0.134831
0.117367
0.0983313
0.0779011
0.0563385
0.0335379
0.0110166
35.5179
35.5232
35.5351
35.5544
35.5812
35.6152
35.6556
35.6997
35.751
35.6803
36.2322
35.5731
35.8553
0.462301
0.680998
-0.00542902
0.165423
0.1474
0.131828
0.114825
0.0962567
0.0762953
0.0551977
0.0328574
0.0107913
35.5119
35.517
35.5287
35.5476
35.574
35.6079
35.6485
35.6931
35.7448
35.6871
36.214
35.5678
35.8493
0.457566
0.676282
-0.00958973
0.161303
0.143741
0.12864
0.112127
0.0940564
0.0745928
0.0539886
0.0321363
0.0105526
35.5059
35.5108
35.5221
35.5406
35.5667
35.6003
35.641
35.6864
35.7389
35.6943
36.1944
35.5627
35.8436
0.45257
0.671338
-0.0139488
0.157
0.139921
0.125314
0.109313
0.0917626
0.0728186
0.0527291
0.0313851
0.0103039
35.4998
35.5045
35.5155
35.5335
35.5591
35.5926
35.6335
35.6798
35.7334
35.7021
36.1737
35.5583
35.8386
0.447405
0.666244
-0.0184432
0.152581
0.135997
0.121899
0.106425
0.0894099
0.0709996
0.0514381
0.0306153
0.010049
35.4939
35.4983
35.5089
35.5264
35.5516
35.5848
35.626
35.6733
35.7285
35.7102
36.1528
35.5548
35.8349
0.442148
0.661078
-0.0230047
0.148112
0.13203
0.118448
0.103509
0.0870348
0.069164
0.0501356
0.0298387
0.00979186
35.4882
35.4924
35.5025
35.5195
35.5441
35.5771
35.6185
35.6671
35.7244
35.7188
36.1323
35.5529
35.8328
0.43688
0.655923
-0.0275599
0.143666
0.128084
0.115016
0.10061
0.0846751
0.0673409
0.0488425
0.0290678
0.00953662
35.4827
35.4867
35.4963
35.5127
35.5369
35.5696
35.6114
35.6614
35.721
35.7277
36.1131
35.5529
35.8328
0.431683
0.650859
-0.0320319
0.139314
0.124221
0.111659
0.0977763
0.0823693
0.0655601
0.0475797
0.028315
0.00928744
35.4777
35.4814
35.4905
35.5064
35.53
35.5624
35.6046
35.6561
35.7185
35.7368
36.0958
35.555
35.8352
0.426658
0.645966
-0.0363413
0.135129
0.120508
0.108434
0.095055
0.0801561
0.0638515
0.0463683
0.0275931
0.00904849
35.4732
35.4766
35.4852
35.5005
35.5236
35.5558
35.5983
35.6513
35.7167
35.746
36.0808
35.5595
35.8401
0.421855
0.641321
-0.0404085
0.131181
0.117008
0.105396
0.0924931
0.0780735
0.0622442
0.0452291
0.0269142
0.00882386
35.4694
35.4724
35.4805
35.4952
35.5177
35.5497
35.5926
35.6472
35.7156
35.755
36.0684
35.5663
35.8475
0.417381
0.636996
-0.0441539
0.127538
0.113782
0.102598
0.0901355
0.0761579
0.0607663
0.0441819
0.0262903
0.00861745
35.4662
35.4688
35.4764
35.4905
35.5125
35.5443
35.5876
35.6436
35.7151
35.7636
36.0584
35.5751
35.8569
0.413297
0.633053
-0.0475008
0.124263
0.110887
0.100091
0.0880244
0.0744436
0.0594442
0.0432453
0.0257325
0.00843291
35.4638
35.466
35.4729
35.4865
35.5081
35.5396
35.5833
35.6407
35.7149
35.7715
36.0508
35.5851
35.8676
0.40966
0.629515
-0.0503785
0.121415
0.108377
0.0979206
0.0861987
0.0729617
0.0583019
0.0424363
0.0252507
0.00827359
35.4624
35.4639
35.4703
35.4833
35.5045
35.5359
35.5798
35.6383
35.715
35.7785
36.0452
35.5955
35.8787
0.406751
0.627134
-0.052693
0.119046
0.1063
0.0961292
0.0846925
0.0717399
0.0573604
0.0417698
0.0248539
0.00814246
35.4621
35.4627
35.4683
35.4809
35.5018
35.533
35.5772
35.6367
35.7152
35.7842
36.0412
35.6052
35.8894
0.405056
0.623199
-0.0546448
0.117107
0.104689
0.0947479
0.0835341
0.070801
0.0566372
0.0412579
0.0245493
0.00804201
35.463
35.4622
35.4671
35.4794
35.5
35.5312
35.5755
35.6356
35.7155
35.7886
36.0379
35.6129
35.8986
0.403401
0.623461
-0.055612
0.116052
0.10363
0.0938102
0.0827464
0.0701629
0.0561459
0.0409103
0.0243429
0.00797423
35.4671
35.4624
35.4666
35.4787
35.4992
35.5304
35.5748
35.6353
35.7158
35.7918
36.0357
35.6171
35.9051
0.401148
0.619958
-0.0560508
0.115083
0.103009
0.093325
0.082344
0.0698378
0.0558959
0.0407334
0.0242387
0.00794077
35.5544
35.5535
35.564
35.5834
35.6107
35.6448
35.6846
35.7273
35.7789
35.6428
36.3033
35.5956
35.8746
0.479952
0.698226
0.0205174
0.183044
0.16444
0.147302
0.128399
0.107702
0.0854407
0.061905
0.0369979
0.0122208
35.5489
35.5518
35.563
35.5825
35.6098
35.644
35.6838
35.7265
35.778
35.6441
36.2981
35.5936
35.8747
0.4799
0.699942
0.0197911
0.182784
0.164013
0.146892
0.128047
0.107414
0.085217
0.0617461
0.0369021
0.0121881
35.545
35.5493
35.561
35.5807
35.608
35.6421
35.6819
35.7245
35.776
35.6459
36.2935
35.5913
35.8739
0.479692
0.697564
0.0184038
0.181616
0.163055
0.146066
0.127345
0.10684
0.0847721
0.0614301
0.0367132
0.0121252
35.541
35.546
35.5581
35.5779
35.6052
35.6393
35.679
35.7216
35.7729
35.6481
36.2873
35.5887
35.872
0.479396
0.697021
0.0168324
0.180124
0.161659
0.144838
0.1263
0.105986
0.0841111
0.0609606
0.0364331
0.0120322
35.5366
35.5421
35.5544
35.5742
35.6014
35.6355
35.6752
35.7177
35.7687
35.6507
36.2792
35.5852
35.8689
0.477475
0.694689
0.0146531
0.178064
0.159803
0.143213
0.124924
0.104863
0.0832419
0.0603435
0.0360652
0.0119103
35.5319
35.5376
35.55
35.5698
35.5969
35.6308
35.6704
35.7128
35.7634
35.6538
36.269
35.5806
35.8645
0.474797
0.69191
0.0120266
0.175508
0.15752
0.141219
0.123234
0.103484
0.0821753
0.0595863
0.0356139
0.011761
35.5269
35.5326
35.545
35.5646
35.5915
35.6252
35.6647
35.7071
35.7574
35.6574
36.2563
35.5749
35.8588
0.4715
0.688543
0.00895972
0.172486
0.154832
0.138875
0.121251
0.101867
0.0809246
0.0586987
0.035085
0.0115861
35.5214
35.5272
35.5394
35.5588
35.5854
35.6189
35.6583
35.7007
35.7505
35.6614
36.2409
35.5684
35.8519
0.467653
0.68465
0.00548161
0.169041
0.151774
0.136212
0.118999
0.100032
0.079506
0.0576921
0.0344853
0.0113878
35.5157
35.5213
35.5334
35.5525
35.5788
35.612
35.6512
35.6936
35.7431
35.6658
36.2227
35.561
35.8438
0.463326
0.68029
0.00162822
0.165219
0.148386
0.133265
0.116508
0.0980033
0.0779382
0.0565801
0.0338228
0.0111688
35.5097
35.5152
35.527
35.5457
35.5715
35.6044
35.6435
35.686
35.7353
35.6705
36.2015
35.5529
35.8346
0.45858
0.675531
-0.00255632
0.161073
0.144713
0.130072
0.113811
0.0958085
0.0762429
0.0553778
0.0331068
0.0109321
35.5036
35.5089
35.5203
35.5386
35.5639
35.5964
35.6352
35.678
35.7272
35.6754
36.1776
35.544
35.8245
0.453481
0.670446
-0.00701976
0.156664
0.140808
0.12668
0.110947
0.0934786
0.0744438
0.0541024
0.0323472
0.0106811
35.4974
35.5025
35.5135
35.5312
35.556
35.5879
35.6266
35.6697
35.7192
35.6804
36.1511
35.5347
35.8136
0.44811
0.665113
-0.0117022
0.152056
0.136727
0.123136
0.107958
0.0910474
0.0725673
0.0527725
0.0315553
0.0104193
35.4912
35.496
35.5066
35.5237
35.5478
35.5793
35.6177
35.6612
35.7113
35.6853
36.1228
35.5253
35.8026
0.442553
0.659615
-0.0165369
0.147319
0.132531
0.119495
0.104887
0.0885513
0.0706415
0.0514081
0.0307429
0.0101507
35.4851
35.4897
35.4997
35.5162
35.5396
35.5705
35.6087
35.6527
35.7037
35.69
36.0934
35.5162
35.7921
0.436893
0.654037
-0.0214503
0.142524
0.128285
0.115811
0.101783
0.086029
0.0686961
0.0500303
0.0299225
0.00987949
35.4792
35.4835
35.493
35.5088
35.5315
35.5617
35.5997
35.6443
35.6966
35.6946
36.064
35.5081
35.782
0.431211
0.648468
-0.0263635
0.13775
0.124057
0.112145
0.0986938
0.0835207
0.0667623
0.048661
0.0291074
0.00961002
35.4737
35.4776
35.4866
35.5016
35.5236
35.5531
35.5909
35.6361
35.69
35.6989
36.0357
35.5015
35.7733
0.425616
0.642995
-0.0311934
0.133073
0.119916
0.108556
0.0956715
0.0810674
0.0648716
0.0473226
0.0283108
0.00934669
35.4685
35.4722
35.4806
35.4949
35.516
35.5449
35.5824
35.6283
35.684
35.703
36.0095
35.497
35.7665
0.420183
0.637707
-0.0358541
0.128572
0.115932
0.105104
0.0927667
0.0787106
0.063056
0.0460377
0.0275461
0.00909396
35.4639
35.4672
35.475
35.4886
35.5089
35.5372
35.5745
35.621
35.6786
35.7069
35.986
35.4947
35.7621
0.415012
0.632686
-0.0402587
0.124323
0.112173
0.10185
0.0900296
0.076491
0.0613466
0.0448283
0.0268264
0.00885615
35.4599
35.4628
35.47
35.4828
35.5024
35.53
35.5671
35.6144
35.6739
35.7104
35.9657
35.4949
35.7601
0.410184
0.628013
-0.0443205
0.120402
0.108706
0.0988509
0.0875089
0.0744478
0.0597738
0.0437158
0.0261646
0.00863746
35.4566
35.4591
35.4657
35.4778
35.4966
35.5237
35.5606
35.6085
35.6699
35.7135
35.9486
35.4974
35.7604
0.405779
0.623756
-0.0479555
0.116875
0.105594
0.0961619
0.0852503
0.0726181
0.0583658
0.0427201
0.0255723
0.0084418
35.4542
35.4562
35.4621
35.4735
35.4917
35.5182
35.5549
35.6034
35.6665
35.7162
35.9346
35.501
35.7623
0.40186
0.619949
-0.0510866
0.113808
0.102894
0.0938329
0.0832959
0.0710356
0.0571485
0.0418596
0.0250605
0.00827278
35.4527
35.454
35.4592
35.4701
35.4877
35.5138
35.5503
35.5993
35.6637
35.7185
35.9233
35.505
35.7653
0.398697
0.617315
-0.053613
0.111258
0.100659
0.0919097
0.0816828
0.0697301
0.0561447
0.0411502
0.0246387
0.00813357
35.4523
35.4527
35.4572
35.4675
35.4847
35.5104
35.5468
35.5961
35.6617
35.7204
35.9143
35.5093
35.7689
0.396839
0.613207
-0.05573
0.109177
0.0989259
0.0904262
0.0804417
0.0687265
0.0553733
0.0406052
0.0243149
0.00802685
35.4531
35.4521
35.4559
35.4658
35.4827
35.5081
35.5445
35.5941
35.6603
35.7218
35.9072
35.5129
35.7722
0.395065
0.613364
-0.0568053
0.108026
0.097783
0.0894188
0.0795977
0.0680444
0.0548492
0.0402349
0.0240952
0.00795477
35.4572
35.4523
35.4554
35.465
35.4817
35.5071
35.5435
35.5932
35.6598
35.7235
35.9031
35.5123
35.7747
0.3927
0.609776
-0.0573056
0.10701
0.0971193
0.0888985
0.0791665
0.0676967
0.0545824
0.0400464
0.0239841
0.00791907
35.5457
35.545
35.5555
35.5747
35.6016
35.6353
35.6747
35.7168
35.7678
35.6375
36.2889
35.5848
35.8638
0.477235
0.693464
0.025916
0.179509
0.162673
0.146443
0.128216
0.10799
0.0860076
0.0625647
0.0375615
0.0124777
35.5402
35.5433
35.5545
35.5738
35.6007
35.6344
35.6737
35.7158
35.7667
35.6386
36.2834
35.5825
35.8638
0.477133
0.695141
0.025158
0.179199
0.162209
0.146003
0.12784
0.107684
0.0857704
0.0623966
0.0374605
0.0124435
35.5363
35.5407
35.5524
35.5718
35.5987
35.6324
35.6716
35.7137
35.7644
35.6403
36.2781
35.5798
35.8626
0.476867
0.692662
0.023688
0.177956
0.161183
0.145119
0.127091
0.107073
0.0852984
0.062062
0.0372609
0.0123771
35.5322
35.5374
35.5494
35.5689
35.5957
35.6293
35.6685
35.7104
35.7608
35.6421
36.2706
35.5764
35.8601
0.476476
0.691915
0.0219857
0.176332
0.15968
0.143804
0.125977
0.106165
0.0845968
0.0615648
0.0369649
0.0122791
35.5278
35.5334
35.5456
35.5651
35.5918
35.6252
35.6642
35.706
35.7559
35.6442
36.2609
35.5719
35.8559
0.474326
0.689419
0.0196473
0.174105
0.157685
0.142064
0.124508
0.104969
0.0836738
0.0609107
0.0365756
0.0121505
35.523
35.5288
35.5411
35.5604
35.5869
35.6201
35.6589
35.7004
35.7499
35.6467
36.2483
35.5659
35.85
0.471399
0.686367
0.0168182
0.171343
0.155229
0.139926
0.122703
0.103501
0.0825402
0.0601077
0.0360979
0.0119927
35.5178
35.5236
35.5359
35.555
35.5812
35.6141
35.6526
35.6939
35.7427
35.6494
36.2326
35.5584
35.8423
0.467805
0.682682
0.0135072
0.168078
0.152336
0.137413
0.120582
0.101777
0.08121
0.0591655
0.0355376
0.0118078
35.5123
35.518
35.5301
35.5489
35.5747
35.6072
35.6453
35.6865
35.7345
35.6522
36.2134
35.5494
35.8327
0.463614
0.678426
0.00974503
0.164353
0.149041
0.134555
0.118172
0.0998185
0.0796999
0.0580963
0.0349017
0.0115979
35.5064
35.512
35.5238
35.5422
35.5675
35.5995
35.6373
35.6782
35.7255
35.6551
36.1901
35.5389
35.8211
0.458895
0.673662
0.00556963
0.160218
0.145388
0.131388
0.115504
0.0976516
0.0780294
0.0569138
0.0341985
0.0113659
35.5003
35.5057
35.5172
35.5351