/*--------------------------------*- C++ -*----------------------------------*\
  =========                 |
  \\      /  F ield         | OpenFOAM: The Open Source CFD Toolbox
   \\    /   O peration     | Website:  https://openfoam.org
    \\  /    A nd           | Version:  11
     \\/     M anipulation  |
\*---------------------------------------------------------------------------*/
FoamFile
{
    format      ascii;
    class       volScalarField;
    location    "500";
    object      epsilon;
}
// * * * * * * * * * * * * * * * * * * * * * * * * * * * * * * * * * * * * * //

dimensions      [0 2 -3 0 0 0 0];

internalField   nonuniform List<scalar> 
729
(
31.8578
151.44
255.56
320.926
353.834
347.03
316.263
257.881
105.31
7.02619
14.0387
39.0468
62.984
85.8606
100.154
101.281
90.1
64.9504
0.162845
0.562836
1.14968
3.79119
10.299
21.2776
32.882
40.6637
36.9655
0.021698
0.0493502
0.143791
0.292715
1.23386
4.92595
13.1569
22.1073
22.6023
0.0205412
0.0593408
0.136828
0.254931
0.637806
2.09515
6.74518
13.421
14.3115
0.0227811
0.0680639
0.172136
0.322308
0.596279
1.47751
4.38485
8.83364
9.43177
0.0229485
0.0774427
0.177208
0.337568
0.610371
1.2559
3.22723
5.93472
6.1712
0.0231642
0.0791387
0.187201
0.358471
0.616708
1.14099
2.68413
4.46883
4.46402
0.0232331
0.0802916
0.186934
0.359152
0.617003
1.03812
1.97381
2.82565
2.64134
118.221
426.15
570.922
663.857
713.373
711.744
660.15
560.864
451.832
9.08159
54.9412
106.632
152.42
186.131
202.828
201.629
199.08
257.808
0.193282
2.11449
10.2329
22.5977
38.3442
53.4741
66.3086
83.5063
122.905
0.0505259
0.137005
0.265388
2.32609
6.3373
14.6842
26.1016
41.6639
64.2907
0.0633122
0.0661026
0.153441
0.509169
1.64032
5.36043
12.6763
23.3828
36.2416
0.0664532
0.0854964
0.169274
0.398065
1.03812
2.99449
7.478
14.3254
21.7964
0.0718328
0.0860888
0.191357
0.412348
0.910352
2.19569
5.05715
9.21922
13.3926
0.0726409
0.0876603
0.198245
0.434252
0.878683
1.82979
3.79174
6.4652
9.15903
0.0731762
0.0883382
0.201858
0.440361
0.868066
1.58487
2.75073
4.00486
5.20928
150.453
488.872
653.207
770.247
838.164
845.424
794.286
692.415
686.488
12.2102
74.5588
144.368
204.466
247.834
269.741
271.091
277.159
390.288
0.321856
4.85562
19.0021
40.0808
62.4142
81.7283
98.0341
122.271
183.355
0.0999199
0.1798
1.36457
5.25499
13.7844
25.6861
40.7537
61.8562
95.0599
0.112439
0.115494
0.282252
0.989918
3.59306
9.69254
19.8898
34.4199
52.8789
0.11909
0.118113
0.238263
0.597191
1.74178
4.95986
11.3683
20.6815
31.2837
0.123789
0.124641
0.253821
0.557885
1.31428
3.30016
7.35221
13.0546
18.9507
0.124848
0.125701
0.263568
0.56115
1.17474
2.55006
5.25893
8.9328
12.7449
0.125295
0.12662
0.267787
0.566614
1.1237
2.10133
3.69835
5.46348
7.16384
165.535
510.218
684.403
814.34
892.874
905.746
854.339
753.066
786.212
14.5129
82.751
162.122
230.131
279.404
304.872
307.82
316.91
449.316
0.450214
6.67409
24.5717
50.4455
76.5937
98.7369
117.538
145.051
212.176
0.135499
0.320934
2.16842
8.00202
19.0219
33.2674
50.825
74.8195
110.647
0.142795
0.151651
0.40182
1.53611
5.29837
13.0749
25.2561
41.8866
61.638
0.155344
0.147936
0.302556
0.785523
2.39842
6.62504
14.4042
25.0938
36.3945
0.157275
0.153592
0.302881
0.678629
1.66654
4.23448
9.17845
15.7245
21.9816
0.160781
0.155136
0.314147
0.663432
1.41564
3.14138
6.42981
10.6468
14.7046
0.160426
0.156089
0.318302
0.663319
1.32011
2.5047
4.42601
6.44743
8.2272
170.836
515.067
692.543
826.627
908.578
923.256
871.847
770.88
813.88
15.4385
84.981
167.3
237.843
289.06
315.732
319.202
328.989
465.552
0.498457
7.28761
26.4188
53.8295
81.2317
104.34
123.979
152.392
220.53
0.149684
0.348496
2.47235
9.03142
20.8808
35.9298
54.3296
79.1336
115.232
0.153287
0.169672
0.451032
1.77052
5.96603
14.3357
27.1999
44.4257
64.2555
0.168158
0.156522
0.325953
0.864645
2.66784
7.27243
15.5327
26.6133
37.9403
0.169541
0.164585
0.322441
0.726504
1.80915
4.60232
9.86511
16.6476
22.9047
0.173173
0.165894
0.332968
0.702303
1.51036
3.37312
6.87187
11.2398
15.3009
0.17282
0.166871
0.337001
0.699654
1.39508
2.65974
4.69708
6.78386
8.54962
166.017
510.532
684.282
814.395
892.993
905.873
854.465
753.173
786.386
14.5077
82.4382
162.02
230.171
279.487
304.961
307.91
316.995
449.436
0.425771
6.66044
24.5597
50.4509
76.6296
98.7864
117.593
145.109
212.249
0.12718
0.805033
2.13214
8.02222
19.0297
33.2914
50.8562
74.8563
110.691
0.142567
0.142717
0.39545
1.5424
5.3016
13.087
25.2736
41.9096
61.6655
0.154875
0.149395
0.302148
0.785605
2.4002
6.63044
14.4142
25.1082
36.412
0.15697
0.153111
0.302438
0.678422
1.66718
4.23721
9.18444
15.7336
21.9927
0.160395
0.155009
0.313947
0.663167
1.41585
3.14295
6.43369
10.6529
14.7123
0.160082
0.155831
0.317977
0.663073
1.32024
2.5057
4.42837
6.45101
8.23172
149.35
492.245
653.2
770.469
838.421
845.665
794.538
692.538
686.966
11.9454
74.3065
144.252
204.603
248.015
269.917
271.272
277.294
390.583
0.327672
5.1143
18.9259
40.1013
62.48
81.8202
98.1365
122.367
183.509
0.0973091
0.249422
1.21905
5.40691
13.763
25.7229
40.8068
61.918
95.1473
0.111607
0.117522
0.275049
1.00691
3.58961
9.7111
19.9179
34.458
52.93
0.119476
0.118302
0.237446
0.596956
1.74322
4.9672
11.3837
20.705
31.3148
0.121991
0.1241
0.252848
0.557396
1.31491
3.30383
7.36129
13.0693
18.97
0.124982
0.125345
0.263298
0.560546
1.17484
2.55221
5.26482
8.94271
12.7583
0.124694
0.12616
0.267138
0.566065
1.12378
2.10277
3.70203
5.46941
7.1718
112.034
438.121
571.44
664.29
713.697
712.03
660.59
560.536
453.136
7.52366
57.3015
106.934
152.772
186.418
203.077
201.91
199.158
258.439
0.228463
3.26907
10.0408
22.6765
38.4434
53.583
66.4345
83.5998
123.173
0.0489653
0.182474
0.252195
2.3221
6.35206
14.7202
26.1586
41.7253
64.4152
0.061385
0.0622136
0.151173
0.510308
1.64203
5.37308
12.7031
23.4197
36.3048
0.0658854
0.0862575
0.168839
0.397531
1.03813
2.99938
7.49147
14.3479
21.8321
0.0711571
0.0852209
0.186323
0.411363
0.910265
2.19808
5.0648
9.23318
13.4137
0.0720279
0.087293
0.199219
0.433423
0.878442
1.83123
3.79671
6.4748
9.17345
0.0725437
0.0878588
0.201004
0.439553
0.867901
1.58594
2.75397
4.01078
5.21799
31.6551
145.221
256.306
321.903
354.702
347.468
318.35
254.979
106.972
3.9815
24.0078
38.6242
63.9104
86.1429
100.479
101.386
90.4257
65.506
0.232241
0.330006
1.26126
3.80797
10.3849
21.3794
32.969
40.7577
37.141
0.0213975
0.0511649
0.143165
0.295968
1.23743
4.95275
13.1943
22.148
22.6708
0.0200868
0.0575121
0.135838
0.255405
0.637971
2.10201
6.76026
13.4412
14.3447
0.0223696
0.0683993
0.161314
0.321719
0.596317
1.47807
4.39115
8.84594
9.45152
0.0225513
0.0763645
0.181254
0.338487
0.609578
1.25591
3.23014
5.94304
6.18384
0.0227751
0.0783885
0.183907
0.35685
0.616314
1.14089
2.68592
4.47552
4.47357
0.0228386
0.0795077
0.185888
0.358105
0.616309
1.03792
1.97504
2.82989
2.6475
)
;

boundaryField
{
    inlet
    {
        type            fixedValue;
        value           uniform 14.855;
    }
    outlet
    {
        type            zeroGradient;
    }
    lowerWall
    {
        type            epsilonWallFunction;
        value           nonuniform List<scalar> 
162
(
31.8578
118.221
150.453
165.535
170.836
166.017
149.35
112.034
31.6551
7.02619
9.08159
12.2102
14.5129
15.4385
14.5077
11.9454
7.52366
3.9815
0.162845
0.193282
0.321856
0.450214
0.498457
0.425771
0.327672
0.228463
0.232241
0.021698
0.0505259
0.0999199
0.135499
0.149684
0.12718
0.0973091
0.0489653
0.0213975
0.0205412
0.0633122
0.112439
0.142795
0.153287
0.142567
0.111607
0.061385
0.0200868
0.0227811
0.0664532
0.11909
0.155344
0.168158
0.154875
0.119476
0.0658854
0.0223696
0.0229485
0.0718328
0.123789
0.157275
0.169541
0.15697
0.121991
0.0711571
0.0225513
0.0231642
0.0726409
0.124848
0.160781
0.173173
0.160395
0.124982
0.0720279
0.0227751
0.0232331
0.0731762
0.125295
0.160426
0.17282
0.160082
0.124694
0.0725437
0.0228386
105.31
451.832
686.488
786.212
813.88
786.386
686.966
453.136
106.972
64.9504
257.808
390.288
449.316
465.552
449.436
390.583
258.439
65.506
36.9655
122.905
183.355
212.176
220.53
212.249
183.509
123.173
37.141
22.6023
64.2907
95.0599
110.647
115.232
110.691
95.1473
64.4152
22.6708
14.3115
36.2416
52.8789
61.638
64.2555
61.6655
52.93
36.3048
14.3447
9.43177
21.7964
31.2837
36.3945
37.9403
36.412
31.3148
21.8321
9.45152
6.1712
13.3926
18.9507
21.9816
22.9047
21.9927
18.97
13.4137
6.18384
4.46402
9.15903
12.7449
14.7046
15.3009
14.7123
12.7583
9.17345
4.47357
2.64134
5.20928
7.16384
8.2272
8.54962
8.23172
7.1718
5.21799
2.6475
)
;
    }
    upperWall
    {
        type            epsilonWallFunction;
        value           nonuniform List<scalar> 
162
(
31.8578
31.6551
7.02619
3.9815
0.162845
0.232241
0.021698
0.0213975
0.0205412
0.0200868
0.0227811
0.0223696
0.0229485
0.0225513
0.0231642
0.0227751
0.0232331
0.0228386
151.44
145.221
14.0387
24.0078
0.562836
0.330006
0.0493502
0.0511649
0.0593408
0.0575121
0.0680639
0.0683993
0.0774427
0.0763645
0.0791387
0.0783885
0.0802916
0.0795077
255.56
256.306
39.0468
38.6242
1.14968
1.26126
0.143791
0.143165
0.136828
0.135838
0.172136
0.161314
0.177208
0.181254
0.187201
0.183907
0.186934
0.185888
320.926
321.903
62.984
63.9104
3.79119
3.80797
0.292715
0.295968
0.254931
0.255405
0.322308
0.321719
0.337568
0.338487
0.358471
0.35685
0.359152
0.358105
353.834
354.702
85.8606
86.1429
10.299
10.3849
1.23386
1.23743
0.637806
0.637971
0.596279
0.596317
0.610371
0.609578
0.616708
0.616314
0.617003
0.616309
347.03
347.468
100.154
100.479
21.2776
21.3794
4.92595
4.95275
2.09515
2.10201
1.47751
1.47807
1.2559
1.25591
1.14099
1.14089
1.03812
1.03792
316.263
318.35
101.281
101.386
32.882
32.969
13.1569
13.1943
6.74518
6.76026
4.38485
4.39115
3.22723
3.23014
2.68413
2.68592
1.97381
1.97504
257.881
254.979
90.1
90.4257
40.6637
40.7577
22.1073
22.148
13.421
13.4412
8.83364
8.84594
5.93472
5.94304
4.46883
4.47552
2.82565
2.82989
105.31
106.972
64.9504
65.506
36.9655
37.141
22.6023
22.6708
14.3115
14.3447
9.43177
9.45152
6.1712
6.18384
4.46402
4.47357
2.64134
2.6475
)
;
    }
}


// ************************************************************************* //
