/*--------------------------------*- C++ -*----------------------------------*\
  =========                 |
  \\      /  F ield         | OpenFOAM: The Open Source CFD Toolbox
   \\    /   O peration     | Website:  https://openfoam.org
    \\  /    A nd           | Version:  11
     \\/     M anipulation  |
\*---------------------------------------------------------------------------*/
FoamFile
{
    format      ascii;
    class       volScalarField;
    location    "500";
    object      k;
}
// * * * * * * * * * * * * * * * * * * * * * * * * * * * * * * * * * * * * * //

dimensions      [0 2 -2 0 0 0 0];

internalField   nonuniform List<scalar> 
729
(
2.50727
6.94364
10.0913
11.7189
12.4956
12.3225
11.6698
9.95709
5.66366
0.617805
2.06778
2.81809
3.96655
4.85035
5.38478
5.41597
5.02846
4.06881
0.0873405
0.115227
0.289678
0.604277
1.17989
1.91719
2.56096
2.95343
2.78159
0.019312
0.036897
0.0632317
0.125015
0.275936
0.726119
1.3913
1.96666
1.99953
0.0188784
0.0367813
0.0668769
0.105246
0.180243
0.411731
0.890752
1.40976
1.47298
0.0197081
0.0428086
0.075236
0.114345
0.176632
0.322963
0.66868
1.0667
1.11504
0.020319
0.0444095
0.080093
0.123399
0.180225
0.290793
0.545264
0.81829
0.84022
0.020283
0.0464781
0.0810602
0.125053
0.18092
0.272674
0.482212
0.677332
0.676996
0.0203291
0.0464708
0.0816248
0.126148
0.180964
0.256004
0.392834
0.498964
0.477159
5.78058
23.536
31.888
37.0134
39.8164
40.1417
37.792
32.3349
14.7403
0.946999
5.05508
9.30584
13.0197
15.7096
17.1382
17.1167
15.995
10.1337
0.0900521
0.426763
1.41533
3.10184
5.10769
6.91488
8.21659
8.77649
6.18099
0.035672
0.0823588
0.191765
0.556893
1.49478
2.93452
4.38051
5.33858
4.01094
0.03795
0.0790104
0.151543
0.302226
0.687652
1.55008
2.6596
3.49459
2.73608
0.0418121
0.0948388
0.173871
0.29295
0.543141
1.06826
1.83629
2.42999
1.949
0.0426192
0.0988604
0.185347
0.311198
0.50988
0.868604
1.39661
1.75643
1.40843
0.043696
0.10319
0.191684
0.320372
0.499523
0.76719
1.1384
1.3522
1.09315
0.043682
0.103683
0.193549
0.324219
0.497152
0.706776
0.918419
0.970544
0.75044
7.01501
27.587
37.6905
44.4245
48.4017
49.3881
47.1715
41.2915
19.4375
1.30146
6.70928
12.6857
17.5728
21.0321
22.8963
23.0067
21.6745
13.3389
0.118225
0.777469
2.63349
5.3045
7.9849
10.1779
11.6541
12.1045
8.06069
0.0531089
0.126187
0.408159
1.23714
2.82203
4.68011
6.38435
7.34571
5.20173
0.0579711
0.115914
0.237751
0.504503
1.22227
2.47205
3.86291
4.76337
3.51813
0.0608673
0.134578
0.236981
0.421061
0.816531
1.59711
2.59895
3.26031
2.47922
0.0617526
0.140097
0.250873
0.414825
0.699933
1.21645
1.91121
2.32288
1.77489
0.062488
0.145211
0.258959
0.420763
0.657936
1.02515
1.5075
1.7571
1.36238
0.0625182
0.145969
0.260865
0.423884
0.643993
0.918501
1.19289
1.25192
0.927933
7.53771
29.0958
40.0021
47.5373
52.1507
53.5122
51.2977
45.014
21.27
1.49009
7.49689
14.3097
19.8026
23.6919
25.815
25.9803
24.4036
14.6477
0.146692
1.01588
3.4017
6.58735
9.62016
12.0341
13.6002
13.8767
8.88233
0.0656412
0.169191
0.595877
1.77391
3.69146
5.78053
7.61149
8.47382
5.75466
0.0685715
0.141802
0.296101
0.679055
1.63351
3.1034
4.63876
5.49992
3.89605
0.0713067
0.159578
0.281532
0.510655
1.02489
1.97278
3.10534
3.74824
2.7421
0.0733728
0.166624
0.292511
0.484096
0.831698
1.45784
2.25283
2.65436
1.95929
0.0735706
0.171379
0.299311
0.481605
0.758416
1.196
1.7471
1.99267
1.49862
0.0737149
0.172472
0.301505
0.483302
0.732387
1.05037
1.36122
1.40998
1.01757
7.68693
29.484
40.6405
48.4247
53.2377
54.7138
52.4949
46.069
21.765
1.55116
7.7273
14.7947
20.4771
24.5046
26.7129
26.8905
25.2172
14.9978
0.157994
1.09619
3.65478
7.00438
10.1495
12.635
14.2255
14.4196
9.11361
0.0699045
0.184905
0.669013
1.96817
3.99233
6.15454
8.02167
8.83055
5.91234
0.0721602
0.151244
0.318538
0.748557
1.78651
3.32784
4.9072
5.736
4.00547
0.0748977
0.168328
0.297834
0.544647
1.10423
2.10993
3.28334
3.90662
2.81913
0.0771835
0.175838
0.30664
0.50848
0.880678
1.54671
2.3732
2.76208
2.01372
0.0773165
0.180292
0.313045
0.503025
0.79443
1.25822
1.83119
2.0691
1.53884
0.0774643
0.181541
0.315315
0.503692
0.763165
1.09713
1.4189
1.46022
1.04396
7.53132
29.113
40.0044
47.5439
52.1585
53.5198
51.3047
45.0208
21.2718
1.48427
7.46909
14.3062
19.8076
23.699
25.8218
25.9864
24.4093
14.6496
0.141584
0.976871
3.38835
6.58947
9.62505
12.0392
13.6049
13.8807
8.88404
0.0625042
0.138174
0.586298
1.77793
3.69424
5.78385
7.61479
8.47665
5.75601
0.0695619
0.142078
0.294741
0.680208
1.6348
3.10528
4.64095
5.50189
3.8971
0.0710379
0.159222
0.281178
0.510613
1.02532
1.9738
3.10678
3.74963
2.7429
0.0733167
0.166757
0.292594
0.484021
0.831844
1.45841
2.25379
2.65534
1.9599
0.0734649
0.171059
0.29896
0.481423
0.758426
1.19634
1.74777
1.99341
1.49912
0.0736097
0.172256
0.301265
0.483131
0.732372
1.05059
1.36167
1.41047
1.01791
7.06235
27.7195
37.7041
44.4406
48.4173
49.4021
47.1842
41.3071
19.4383
1.32661
6.65759
12.6877
17.5861
21.0475
22.9099
23.0186
21.6854
13.3412
0.116732
0.770265
2.63357
5.31058
7.99491
10.1877
11.663
12.112
8.06294
0.0535614
0.127206
0.406026
1.24124
2.8259
4.68608
6.39024
7.35083
5.20379
0.0578437
0.115684
0.236664
0.506098
1.22328
2.47502
3.86656
4.76688
3.51982
0.0602052
0.134127
0.236832
0.420941
0.816972
1.59859
2.60127
3.26275
2.48057
0.0618913
0.140018
0.250677
0.414552
0.700013
1.21725
1.91273
2.3246
1.77595
0.0621643
0.144704
0.258363
0.420374
0.657871
1.02562
1.50857
1.75839
1.36327
0.0623162
0.145572
0.260399
0.423533
0.643914
0.918808
1.19361
1.2528
0.92855
6.00984
23.9809
31.9299
37.0372
39.8339
40.1559
37.8037
32.3695
14.7255
1.10006
4.91382
9.32506
13.0416
15.7332
17.1572
17.1339
16.0082
10.1288
0.0842463
0.435501
1.4139
3.11173
5.11976
6.92712
8.22791
8.78483
6.1804
0.0351479
0.0827532
0.18624
0.559801
1.49861
2.94056
4.38715
5.34416
4.01186
0.0379493
0.0776293
0.149715
0.301828
0.688032
1.55253
2.6633
3.49833
2.73741
0.0414234
0.0942695
0.173821
0.292532
0.543311
1.06934
1.83843
2.43256
1.9503
0.0423644
0.0982332
0.184132
0.310625
0.509738
0.869149
1.39796
1.75825
1.40953
0.0434364
0.102857
0.191207
0.319877
0.499343
0.7675
1.13936
1.35359
1.09413
0.0434298
0.103281
0.192958
0.323757
0.496994
0.706992
0.919109
0.971511
0.751136
2.50966
7.15116
10.1034
11.7291
12.505
12.3387
11.6356
10.0489
5.6217
0.98526
1.47698
2.89629
3.96928
4.87199
5.39589
5.42935
5.02975
4.05534
0.0855335
0.170615
0.278574
0.611654
1.18483
1.92296
2.56701
2.95698
2.77856
0.0195984
0.0352163
0.0618142
0.124089
0.277182
0.727883
1.39435
1.96912
1.99959
0.0186174
0.0367171
0.0644257
0.104702
0.180251
0.412021
0.892287
1.41145
1.47385
0.0194764
0.0426011
0.0771038
0.11477
0.17644
0.323142
0.669363
1.06794
1.11604
0.0200686
0.0442184
0.0781259
0.122968
0.180099
0.290741
0.54557
0.81921
0.841132
0.0200579
0.0461451
0.0815354
0.124834
0.18073
0.272588
0.48244
0.678085
0.677857
0.0200984
0.0461676
0.081328
0.125903
0.180818
0.255946
0.393044
0.499545
0.477814
)
;

boundaryField
{
    inlet
    {
        type            fixedValue;
        value           uniform 0.375;
    }
    outlet
    {
        type            zeroGradient;
    }
    lowerWall
    {
        type            kqRWallFunction;
        value           nonuniform List<scalar> 
162
(
2.50727
5.78058
7.01501
7.53771
7.68693
7.53132
7.06235
6.00984
2.50966
0.617805
0.946999
1.30146
1.49009
1.55116
1.48427
1.32661
1.10006
0.98526
0.0873405
0.0900521
0.118225
0.146692
0.157994
0.141584
0.116732
0.0842463
0.0855335
0.019312
0.035672
0.0531089
0.0656412
0.0699045
0.0625042
0.0535614
0.0351479
0.0195984
0.0188784
0.03795
0.0579711
0.0685715
0.0721602
0.0695619
0.0578437
0.0379493
0.0186174
0.0197081
0.0418121
0.0608673
0.0713067
0.0748977
0.0710379
0.0602052
0.0414234
0.0194764
0.020319
0.0426192
0.0617526
0.0733728
0.0771835
0.0733167
0.0618913
0.0423644
0.0200686
0.020283
0.043696
0.062488
0.0735706
0.0773165
0.0734649
0.0621643
0.0434364
0.0200579
0.0203291
0.043682
0.0625182
0.0737149
0.0774643
0.0736097
0.0623162
0.0434298
0.0200984
5.66366
14.7403
19.4375
21.27
21.765
21.2718
19.4383
14.7255
5.6217
4.06881
10.1337
13.3389
14.6477
14.9978
14.6496
13.3412
10.1288
4.05534
2.78159
6.18099
8.06069
8.88233
9.11361
8.88404
8.06294
6.1804
2.77856
1.99953
4.01094
5.20173
5.75466
5.91234
5.75601
5.20379
4.01186
1.99959
1.47298
2.73608
3.51813
3.89605
4.00547
3.8971
3.51982
2.73741
1.47385
1.11504
1.949
2.47922
2.7421
2.81913
2.7429
2.48057
1.9503
1.11604
0.84022
1.40843
1.77489
1.95929
2.01372
1.9599
1.77595
1.40953
0.841132
0.676996
1.09315
1.36238
1.49862
1.53884
1.49912
1.36327
1.09413
0.677857
0.477159
0.75044
0.927933
1.01757
1.04396
1.01791
0.92855
0.751136
0.477814
)
;
    }
    upperWall
    {
        type            kqRWallFunction;
        value           nonuniform List<scalar> 
162
(
2.50727
2.50966
0.617805
0.98526
0.0873405
0.0855335
0.019312
0.0195984
0.0188784
0.0186174
0.0197081
0.0194764
0.020319
0.0200686
0.020283
0.0200579
0.0203291
0.0200984
6.94364
7.15116
2.06778
1.47698
0.115227
0.170615
0.036897
0.0352163
0.0367813
0.0367171
0.0428086
0.0426011
0.0444095
0.0442184
0.0464781
0.0461451
0.0464708
0.0461676
10.0913
10.1034
2.81809
2.89629
0.289678
0.278574
0.0632317
0.0618142
0.0668769
0.0644257
0.075236
0.0771038
0.080093
0.0781259
0.0810602
0.0815354
0.0816248
0.081328
11.7189
11.7291
3.96655
3.96928
0.604277
0.611654
0.125015
0.124089
0.105246
0.104702
0.114345
0.11477
0.123399
0.122968
0.125053
0.124834
0.126148
0.125903
12.4956
12.505
4.85035
4.87199
1.17989
1.18483
0.275936
0.277182
0.180243
0.180251
0.176632
0.17644
0.180225
0.180099
0.18092
0.18073
0.180964
0.180818
12.3225
12.3387
5.38478
5.39589
1.91719
1.92296
0.726119
0.727883
0.411731
0.412021
0.322963
0.323142
0.290793
0.290741
0.272674
0.272588
0.256004
0.255946
11.6698
11.6356
5.41597
5.42935
2.56096
2.56701
1.3913
1.39435
0.890752
0.892287
0.66868
0.669363
0.545264
0.54557
0.482212
0.48244
0.392834
0.393044
9.95709
10.0489
5.02846
5.02975
2.95343
2.95698
1.96666
1.96912
1.40976
1.41145
1.0667
1.06794
0.81829
0.81921
0.677332
0.678085
0.498964
0.499545
5.66366
5.6217
4.06881
4.05534
2.78159
2.77856
1.99953
1.99959
1.47298
1.47385
1.11504
1.11604
0.84022
0.841132
0.676996
0.677857
0.477159
0.477814
)
;
    }
}


// ************************************************************************* //
