/*--------------------------------*- C++ -*----------------------------------*\
  =========                 |
  \\      /  F ield         | OpenFOAM: The Open Source CFD Toolbox
   \\    /   O peration     | Website:  https://openfoam.org
    \\  /    A nd           | Version:  11
     \\/     M anipulation  |
\*---------------------------------------------------------------------------*/
FoamFile
{
    format      ascii;
    class       volScalarField;
    location    "500";
    object      nut;
}
// * * * * * * * * * * * * * * * * * * * * * * * * * * * * * * * * * * * * * //

dimensions      [0 2 -1 0 0 0 0];

internalField   nonuniform List<scalar> 
729
(
0.0177594
0.0286533
0.0358626
0.0385133
0.0397151
0.0393795
0.0387547
0.034601
0.0274136
0.00488906
0.0274108
0.0183049
0.0224822
0.0246601
0.026056
0.0260656
0.0252574
0.0229401
0.00421598
0.00212308
0.00656895
0.0086684
0.0121655
0.0155471
0.0179511
0.0193059
0.0188379
0.00154696
0.00248277
0.00250254
0.00480533
0.00555386
0.00963315
0.0132413
0.0157458
0.0159201
0.00156153
0.00205184
0.00294185
0.00391044
0.00458429
0.00728207
0.0105868
0.0133275
0.0136443
0.00153447
0.00242319
0.00295953
0.00365094
0.00470902
0.00635354
0.00917752
0.0115928
0.0118639
0.00161917
0.00229199
0.00325798
0.00405978
0.00478936
0.00605976
0.00829138
0.0101545
0.0102958
0.00159842
0.00245668
0.003159
0.00392625
0.00477678
0.00586472
0.00779678
0.00923958
0.00924035
0.00160092
0.00242066
0.00320774
0.00398772
0.00477684
0.00568185
0.00703651
0.0079298
0.00775793
0.0254383
0.116989
0.160295
0.185731
0.200009
0.203756
0.194715
0.167776
0.043279
0.00888749
0.0418601
0.0730916
0.100093
0.119332
0.130331
0.130776
0.115661
0.0358497
0.00377605
0.00775194
0.017618
0.0383193
0.0612338
0.0804763
0.091634
0.0830165
0.0279762
0.00226664
0.00445581
0.012471
0.0119994
0.0317316
0.0527797
0.0661645
0.0615651
0.0225209
0.00204729
0.00849948
0.0134701
0.0161452
0.0259448
0.0403414
0.0502205
0.0470045
0.0185906
0.00236772
0.0094682
0.0160733
0.0194033
0.0255752
0.0342985
0.0405826
0.0370975
0.0156848
0.00227579
0.0102174
0.0161573
0.0211374
0.0257021
0.0309254
0.0347127
0.0301169
0.0133305
0.00236562
0.0109323
0.0166806
0.021272
0.0255577
0.0289499
0.0307607
0.0254531
0.0117422
0.00234681
0.0109525
0.0167023
0.0214838
0.0256253
0.028367
0.0275979
0.0211683
0.00972965
0.0294374
0.140106
0.195729
0.230599
0.251556
0.259664
0.25213
0.221614
0.0495323
0.0124848
0.054337
0.100323
0.135926
0.160637
0.174914
0.175726
0.15255
0.0410295
0.00390844
0.0112038
0.0328477
0.0631824
0.0919386
0.114074
0.124687
0.107848
0.031893
0.00254053
0.00797045
0.0109877
0.0262127
0.0519968
0.0767463
0.0900137
0.0785103
0.0256178
0.00268997
0.0104702
0.018024
0.0231404
0.0374209
0.0567438
0.0675214
0.0593282
0.0210661
0.00279985
0.0138003
0.0212135
0.026719
0.0344504
0.0462853
0.0534741
0.0462572
0.017683
0.00277249
0.0141723
0.0223164
0.0277605
0.033548
0.0403552
0.044714
0.037199
0.014961
0.00281486
0.0150974
0.0228988
0.0283949
0.033164
0.0370911
0.038892
0.0311062
0.013107
0.0028075
0.0151447
0.0228709
0.0285397
0.0332165
0.0361333
0.0346286
0.0258183
0.0108176
0.0308911
0.14933
0.210425
0.24975
0.27414
0.284539
0.27721
0.242161
0.0517889
0.0137694
0.0611268
0.113674
0.15336
0.180804
0.19673
0.197348
0.169128
0.0429761
0.00430164
0.0139167
0.0423838
0.0774179
0.108746
0.132005
0.14163
0.119479
0.0334657
0.00286194
0.00802753
0.0147371
0.035392
0.064474
0.090398
0.10259
0.0863746
0.0269366
0.00296358
0.0119334
0.0196378
0.0270165
0.0453258
0.0662948
0.0766797
0.064995
0.0221638
0.00294583
0.0154922
0.0235772
0.0298771
0.0394163
0.0528701
0.0602517
0.0503885
0.018594
0.00308072
0.0162686
0.0254247
0.0310795
0.0373559
0.0451713
0.0497655
0.0403258
0.0157173
0.00302981
0.017039
0.0256659
0.031465
0.0365682
0.0409814
0.0427246
0.0335656
0.0137459
0.00304845
0.0171516
0.0257034
0.0316926
0.036569
0.0396435
0.0376782
0.0277511
0.011327
0.0311292
0.151898
0.214642
0.255309
0.28075
0.29182
0.28447
0.247784
0.0523842
0.0140266
0.0632377
0.117749
0.158667
0.186961
0.203407
0.203879
0.173962
0.0434838
0.00450707
0.0148399
0.0455043
0.0820277
0.114131
0.137703
0.146903
0.122796
0.0338965
0.00293817
0.00882959
0.016293
0.0386024
0.0686985
0.0948811
0.106595
0.0886865
0.0273017
0.00305725
0.0121336
0.0202469
0.0284834
0.0481466
0.069526
0.0796789
0.0666541
0.0224718
0.00300235
0.0162922
0.0244927
0.030877
0.0411339
0.0550933
0.0624635
0.0516115
0.0188527
0.0031624
0.0169075
0.0262452
0.0320297
0.0385836
0.0467826
0.0513819
0.0412442
0.0159337
0.00310676
0.0176346
0.0264882
0.0324263
0.0376075
0.04224
0.0439172
0.0342805
0.0139288
0.00312502
0.0177751
0.0265522
0.0326354
0.0375733
0.0407306
0.0385762
0.0282879
0.0114726
0.0307491
0.149414
0.210486
0.249802
0.274186
0.284579
0.277245
0.242199
0.0517865
0.0136669
0.0609045
0.113689
0.153411
0.180859
0.196776
0.197384
0.169161
0.0429763
0.00423737
0.0128948
0.0420722
0.0774594
0.108806
0.13205
0.141662
0.119501
0.0334671
0.00276465
0.00213444
0.0145099
0.0354633
0.0645447
0.0904365
0.102616
0.0863898
0.0269384
0.00305468
0.0127297
0.0197711
0.0269979
0.0453695
0.0663137
0.0766991
0.065006
0.0221658
0.00293251
0.0152727
0.0235497
0.0298691
0.0394198
0.0528816
0.0602659
0.0503971
0.018596
0.00308199
0.0163457
0.0254762
0.0310792
0.0373546
0.0451774
0.0497755
0.0403325
0.0157192
0.00302838
0.0169893
0.025622
0.0314538
0.0365637
0.040984
0.0427317
0.0335714
0.0137478
0.00304629
0.017137
0.0256888
0.0316818
0.0365638
0.039644
0.0376826
0.0277551
0.0113285
0.0300563
0.140485
0.195872
0.2307
0.251641
0.259737
0.252186
0.221743
0.049502
0.0132595
0.0536846
0.100436
0.136041
0.160756
0.175008
0.17579
0.152629
0.0410126
0.00374271
0.0104409
0.0329819
0.0632948
0.0920724
0.114165
0.124747
0.107897
0.0318839
0.00265335
0.00583882
0.012171
0.0256453
0.0522208
0.076832
0.0900626
0.0785415
0.0256145
0.00269813
0.0102487
0.0183272
0.022894
0.0375184
0.0567715
0.0675537
0.0593499
0.021066
0.00273042
0.0136862
0.0212599
0.0267142
0.0344592
0.0463028
0.053497
0.0462737
0.0176847
0.00282601
0.014218
0.0223672
0.0277483
0.0335396
0.0403628
0.0447299
0.0372122
0.0149635
0.00278277
0.0150347
0.0228168
0.0283728
0.0331548
0.0370934
0.0389036
0.0311175
0.0131102
0.00280285
0.0151174
0.0228448
0.02852
0.0332062
0.0361327
0.0346361
0.0258264
0.0108199
0.0290147
0.118136
0.16057
0.185849
0.200094
0.203818
0.194706
0.168233
0.0430682
0.014476
0.0379241
0.0731866
0.100198
0.119506
0.130459
0.130856
0.115806
0.0357273
0.00279594
0.00522151
0.0179189
0.03843
0.0613648
0.0805975
0.0917123
0.0830815
0.0279101
0.00227066
0.00337761
0.012378
0.0121459
0.0318203
0.0528673
0.0662206
0.0616031
0.0224878
0.00211148
0.00871784
0.0133445
0.0160668
0.0259465
0.0403739
0.0502541
0.0470308
0.0185763
0.00234393
0.00927231
0.0161054
0.0193739
0.0255909
0.0343118
0.0406042
0.0371179
0.0156802
0.00227
0.0101909
0.0163771
0.0211101
0.0256903
0.0309305
0.0347274
0.0301338
0.0133305
0.00235749
0.0109076
0.0165166
0.021247
0.0255462
0.0289505
0.0307721
0.0254678
0.0117448
0.00234001
0.010927
0.0166711
0.021462
0.0256139
0.0283651
0.0276069
0.0211792
0.00973143
0.0179073
0.0316931
0.0358442
0.0384634
0.0396777
0.0394335
0.0382749
0.0356427
0.0265895
0.0219431
0.0081779
0.0195464
0.0221868
0.024799
0.0260793
0.0261673
0.0251793
0.0225952
0.00283515
0.00793877
0.00553755
0.0088422
0.0121662
0.0155663
0.0179883
0.0193076
0.0187081
0.00161555
0.00218151
0.00240205
0.00468235
0.00558795
0.00962761
0.0132617
0.0157562
0.015873
0.001553
0.00210969
0.00275005
0.00386301
0.00458349
0.00726852
0.0105996
0.0133394
0.0136288
0.00152616
0.00238799
0.00331682
0.00368489
0.0046985
0.00635822
0.00918307
0.0116035
0.0118604
0.00160732
0.0023044
0.00303071
0.00402057
0.00478892
0.00605757
0.00829318
0.0101631
0.010297
0.00158985
0.00244478
0.0032534
0.00393026
0.00476982
0.00586158
0.00779893
0.00924628
0.00924411
0.00159182
0.00241273
0.00320238
0.00398387
0.00477451
0.00568034
0.00703964
0.00793637
0.00776114
)
;

boundaryField
{
    inlet
    {
        type            calculated;
        value           uniform 0.000851986;
    }
    outlet
    {
        type            calculated;
        value           nonuniform List<scalar> 
81
(
0.00160092
0.00234681
0.0028075
0.00304845
0.00312502
0.00304629
0.00280285
0.00234001
0.00159182
0.00242066
0.0109525
0.0151447
0.0171516
0.0177751
0.017137
0.0151174
0.010927
0.00241273
0.00320774
0.0167023
0.0228709
0.0257034
0.0265522
0.0256888
0.0228448
0.0166711
0.00320238
0.00398772
0.0214838
0.0285397
0.0316926
0.0326354
0.0316818
0.02852
0.021462
0.00398387
0.00477684
0.0256253
0.0332165
0.036569
0.0375733
0.0365638
0.0332062
0.0256139
0.00477451
0.00568185
0.028367
0.0361333
0.0396435
0.0407306
0.039644
0.0361327
0.0283651
0.00568034
0.00703651
0.0275979
0.0346286
0.0376782
0.0385762
0.0376826
0.0346361
0.0276069
0.00703964
0.0079298
0.0211683
0.0258183
0.0277511
0.0282879
0.0277551
0.0258264
0.0211792
0.00793637
0.00775793
0.00972965
0.0108176
0.011327
0.0114726
0.0113285
0.0108199
0.00973143
0.00776114
)
;
    }
    lowerWall
    {
        type            nutkWallFunction;
        Cmu             0.09;
        kappa           0.41;
        E               9.8;
        value           nonuniform List<scalar> 
162
(
0.00165829
0.0024276
0.00265203
0.00274058
0.00276524
0.00273951
0.00266019
0.00247111
0.00165902
0.000876381
0.00106437
0.0012301
0.0013083
0.00133245
0.00130596
0.00124087
0.00113947
0.00108373
0.000359584
0.000364639
0.000412862
0.000455527
0.000471195
0.00044823
0.000410476
0.000353709
0.000356167
0.000179732
0.00023859
0.000286408
0.000315579
0.000324793
0.000308587
0.000287523
0.000236971
0.000180963
0.00017785
0.000245478
0.000298133
0.000321946
0.000329544
0.000324064
0.000297833
0.000245476
0.000176705
0.000181432
0.000256653
0.000304862
0.000327756
0.000335201
0.000327191
0.000303339
0.000255555
0.00018044
0.000184016
0.000258916
0.000306883
0.000332064
0.000339838
0.000331948
0.000307198
0.000258204
0.000182962
0.000183865
0.000261899
0.00030855
0.000332473
0.000340106
0.000332255
0.000307818
0.000261183
0.000182917
0.000184059
0.00026186
0.000308618
0.000332771
0.000340403
0.000332554
0.000308162
0.000261165
0.000183088
0.00240505
0.00372468
0.00422787
0.0044061
0.00445282
0.00440628
0.00422795
0.00372297
0.0023969
0.00206803
0.00313769
0.00355815
0.00371394
0.00375433
0.00371417
0.00355843
0.00313699
0.0020649
0.00173867
0.00250301
0.00282591
0.00295414
0.00298907
0.0029544
0.00282627
0.0025029
0.00173781
0.00149581
0.00205455
0.0023134
0.00242262
0.00245272
0.00242288
0.00231382
0.00205477
0.00149583
0.00130143
0.00172564
0.00193527
0.00202749
0.00205327
0.00202774
0.0019357
0.00172603
0.00130178
0.00114651
0.00147847
0.00164981
0.00172737
0.00174933
0.0017276
0.00165022
0.00147892
0.00114698
0.00100797
0.00127514
0.00141677
0.00148202
0.00150064
0.00148223
0.00141715
0.0012756
0.00100847
0.000913628
0.00113621
0.00125599
0.0013117
0.00132762
0.0013119
0.00125636
0.00113667
0.000914156
0.000779218
0.000957457
0.00105456
0.00109976
0.00111265
0.00109993
0.00105488
0.000957861
0.000779705
)
;
    }
    upperWall
    {
        type            nutkWallFunction;
        Cmu             0.09;
        kappa           0.41;
        E               9.8;
        value           nonuniform List<scalar> 
162
(
0.00165829
0.00165902
0.000876381
0.00108373
0.000359584
0.000356167
0.000179732
0.000180963
0.00017785
0.000176705
0.000181432
0.00018044
0.000184016
0.000182962
0.000183865
0.000182917
0.000184059
0.000183088
0.00263966
0.00267543
0.00151886
0.00130304
0.000408053
0.000487982
0.000242323
0.000237183
0.000241973
0.000241779
0.000259444
0.000258866
0.000263852
0.000263331
0.000269422
0.000268534
0.000269402
0.000268595
0.00313167
0.00313339
0.00174904
0.001771
0.000620947
0.000610001
0.000310225
0.000307023
0.000318283
0.000312892
0.000335892
0.000339678
0.000345633
0.000341728
0.000347534
0.000348463
0.000348638
0.000348058
0.00335341
0.00335475
0.00204415
0.00204479
0.000867599
0.000872401
0.00042351
0.000422076
0.000391532
0.000390608
0.000406626
0.000407315
0.000421004
0.000420334
0.000423568
0.000423229
0.000425255
0.000424878
0.00345336
0.00345455
0.0022407
0.00224526
0.00117639
0.00117864
0.000607366
0.000608613
0.000500337
0.000500347
0.000495746
0.000495501
0.000500313
0.000500155
0.000501191
0.000500952
0.000501247
0.000501063
0.00343138
0.00343345
0.00235023
0.00235244
0.00146743
0.00146944
0.000943213
0.000944254
0.000728658
0.000728891
0.000652449
0.000652614
0.000622034
0.000621983
0.000604088
0.000604002
0.000586993
0.000586933
0.00334698
0.00334248
0.00235643
0.00235909
0.00167439
0.00167619
0.00126806
0.00126933
0.00103512
0.00103593
0.000908505
0.000908927
0.000827975
0.000828186
0.000782961
0.000783129
0.00071325
0.000713423
0.00311255
0.00312564
0.0022779
0.00227816
0.00178685
0.00178783
0.00148456
0.00148541
0.00127569
0.00127639
0.00112361
0.00112421
0.000995917
0.000996426
0.000913834
0.000914296
0.000795219
0.00079564
0.00240505
0.0023969
0.00206803
0.0020649
0.00173867
0.00173781
0.00149581
0.00149583
0.00130143
0.00130178
0.00114651
0.00114698
0.00100797
0.00100847
0.000913628
0.000914156
0.000779218
0.000779705
)
;
    }
}


// ************************************************************************* //
