/*--------------------------------*- C++ -*----------------------------------*\
  =========                 |
  \\      /  F ield         | OpenFOAM: The Open Source CFD Toolbox
   \\    /   O peration     | Website:  https://openfoam.org
    \\  /    A nd           | Version:  11
     \\/     M anipulation  |
\*---------------------------------------------------------------------------*/
FoamFile
{
    format      ascii;
    class       volScalarField;
    location    "500";
    object      p;
}
// * * * * * * * * * * * * * * * * * * * * * * * * * * * * * * * * * * * * * //

dimensions      [0 2 -2 0 0 0 0];

internalField   nonuniform List<scalar> 
729
(
2.92239
3.53748
3.11237
2.11598
1.1312
0.256141
-0.412166
-1.32228
2.35356
0.29483
0.207202
0.219188
0.0794375
-0.0983101
-0.189012
-0.0704208
0.185116
1.39152
0.185219
0.201358
0.225026
0.15394
0.00152634
-0.122214
-0.0898902
0.0743617
0.424333
0.136204
0.13758
0.107469
0.0179065
-0.120122
-0.231938
-0.238429
-0.189959
-0.0398533
0.101916
0.0774689
0.0150106
-0.0818451
-0.197714
-0.281606
-0.294133
-0.2572
-0.149148
0.0581432
0.0215472
-0.0448012
-0.133944
-0.225692
-0.28078
-0.287223
-0.231793
-0.148162
0.0270873
-0.00666038
-0.0609352
-0.130482
-0.196014
-0.230169
-0.232622
-0.179357
-0.129102
0.00663718
-0.0133053
-0.0441646
-0.0835513
-0.12006
-0.143011
-0.144879
-0.101938
-0.0783083
-0.00387904
-0.00709105
-0.0117308
-0.0179105
-0.0241317
-0.0368228
-0.0342429
-0.0306069
-0.050871
3.67714
4.8009
4.12388
2.6067
1.23524
-0.119454
-1.77093
-4.36516
2.27725
-0.100006
-0.180285
-0.243597
-0.307827
-0.323303
-0.264567
0.0310405
0.484793
3.0949
0.180882
0.198703
0.201987
0.129531
0.0145396
-0.0712235
-0.00515098
0.195568
1.19191
0.108496
0.102423
0.0662441
-0.0234477
-0.145619
-0.238346
-0.256583
-0.345825
-0.0840631
0.0775321
0.0364549
-0.0302238
-0.120502
-0.222182
-0.296472
-0.324229
-0.435747
-0.31768
0.0320166
-0.0179421
-0.0824626
-0.161129
-0.236838
-0.287675
-0.306551
-0.374017
-0.257046
0.00729047
-0.0356539
-0.0858981
-0.145536
-0.199141
-0.232664
-0.246507
-0.292473
-0.206391
-0.00422743
-0.0286448
-0.0568467
-0.0904867
-0.121767
-0.143184
-0.15279
-0.184685
-0.133717
-0.00569749
-0.00952643
-0.0137297
-0.0193984
-0.0261919
-0.0349158
-0.0396953
-0.0742979
-0.0878111
4.54386
6.21541
5.53785
3.59868
1.81986
-0.0310496
-2.76347
-6.65917
1.61381
-0.196348
-0.31339
-0.551927
-0.645935
-0.566327
-0.370985
0.117627
0.935516
4.37513
0.142397
0.155384
0.125837
0.0417888
-0.05744
-0.101125
0.0837762
0.480875
1.94469
0.0471417
0.0447436
0.00589943
-0.0843232
-0.198561
-0.280122
-0.271052
-0.370533
-0.0149531
0.0380249
-0.00113182
-0.0603004
-0.144903
-0.242826
-0.318634
-0.345317
-0.482715
-0.368381
0.00283326
-0.0452767
-0.10067
-0.169605
-0.237726
-0.289469
-0.31027
-0.388622
-0.257182
-0.011848
-0.0529911
-0.0963247
-0.148326
-0.194089
-0.225517
-0.240154
-0.29374
-0.193578
-0.0143832
-0.0378826
-0.0621758
-0.0915566
-0.116744
-0.132861
-0.139955
-0.177891
-0.12476
-0.00738288
-0.0109448
-0.014119
-0.0191108
-0.0241295
-0.0283426
-0.0320868
-0.0705412
-0.0889463
5.02281
6.86127
6.22008
4.11248
2.12989
-0.00660181
-3.32374
-7.67745
1.10188
-0.201318
-0.416475
-0.728506
-0.815691
-0.687676
-0.430878
0.155493
1.22168
4.95909
0.102701
0.108979
0.0483031
-0.0492455
-0.137326
-0.14038
0.147173
0.714209
2.43214
0.00684746
0.0062052
-0.0400219
-0.135794
-0.245917
-0.311566
-0.262698
-0.329208
0.0877468
0.00904794
-0.0290656
-0.0859858
-0.169095
-0.264651
-0.336345
-0.34984
-0.481108
-0.380911
-0.0178151
-0.064971
-0.115592
-0.178487
-0.241764
-0.291983
-0.30973
-0.382221
-0.259258
-0.0251447
-0.0652084
-0.104497
-0.150916
-0.190777
-0.219613
-0.235168
-0.288088
-0.193206
-0.0213513
-0.0441559
-0.0660131
-0.0919887
-0.112455
-0.124373
-0.132363
-0.173689
-0.129545
-0.00871365
-0.012279
-0.0148785
-0.0191167
-0.0227545
-0.0241931
-0.0291064
-0.0724336
-0.0973823
5.15912
7.03722
6.41605
4.26192
2.21737
-0.00829188
-3.49887
-7.95501
0.923337
-0.197781
-0.451438
-0.781081
-0.862942
-0.721581
-0.448266
0.166899
1.30778
5.11302
0.0867849
0.0904356
0.0209625
-0.0791427
-0.162388
-0.15125
0.171255
0.795727
2.59624
-0.00637624
-0.0070784
-0.0559941
-0.153582
-0.261804
-0.320806
-0.256154
-0.307258
0.128484
-0.00122801
-0.0393736
-0.0955447
-0.178113
-0.272772
-0.342216
-0.349762
-0.476693
-0.384754
-0.0250907
-0.0718785
-0.120959
-0.181853
-0.243611
-0.292964
-0.308957
-0.377259
-0.260672
-0.0298187
-0.069451
-0.107366
-0.151791
-0.189657
-0.217465
-0.232871
-0.283261
-0.191981
-0.0237294
-0.0462746
-0.0672758
-0.091979
-0.110774
-0.121212
-0.129104
-0.16953
-0.129134
-0.0090858
-0.0126541
-0.0150365
-0.0189935
-0.0221149
-0.0225534
-0.0275354
-0.0713004
-0.0982342
5.01815
6.85952
6.21909
4.11212
2.1297
-0.00688604
-3.32443
-7.67764
1.10353
-0.200019
-0.412772
-0.728393
-0.816511
-0.688082
-0.430843
0.156003
1.22278
4.96133
0.100811
0.106419
0.0469659
-0.049056
-0.137076
-0.140165
0.147693
0.715072
2.43377
0.00786575
0.00645877
-0.0403642
-0.135357
-0.245472
-0.311241
-0.262309
-0.328813
0.0884247
0.00962678
-0.0295823
-0.0860374
-0.168836
-0.264373
-0.336064
-0.349537
-0.480837
-0.380615
-0.0176158
-0.0650369
-0.115601
-0.178273
-0.241516
-0.291742
-0.309494
-0.381995
-0.259061
-0.0249526
-0.0650912
-0.104376
-0.150746
-0.190597
-0.219443
-0.235009
-0.287937
-0.193089
-0.0212184
-0.0440335
-0.0659101
-0.0918866
-0.112352
-0.12428
-0.132279
-0.173612
-0.129497
-0.00864306
-0.0122087
-0.0148235
-0.0190749
-0.0227254
-0.0241679
-0.0290841
-0.0724184
-0.0973872
4.53193
6.20903
5.53498
3.59759
1.81932
-0.0315865
-2.76469
-6.65955
1.61788
-0.193361
-0.317355
-0.557123
-0.649076
-0.567948
-0.371468
0.118374
0.937567
4.3795
0.140384
0.152321
0.123613
0.0407876
-0.0578613
-0.101025
0.084557
0.482266
1.94741
0.0458475
0.0440205
0.00551489
-0.0840433
-0.198072
-0.27957
-0.27041
-0.369945
-0.0137733
0.0375058
-0.00142882
-0.0603316
-0.144488
-0.242275
-0.318073
-0.34478
-0.482297
-0.36782
0.00302768
-0.0451667
-0.100471
-0.169187
-0.237245
-0.289004
-0.309844
-0.388277
-0.256825
-0.0114589
-0.0526539
-0.096041
-0.148004
-0.193755
-0.225208
-0.239878
-0.293523
-0.193379
-0.0140824
-0.0375921
-0.0619505
-0.0913546
-0.116554
-0.132697
-0.139819
-0.177791
-0.12468
-0.00724448
-0.010796
-0.0140065
-0.0190274
-0.0240741
-0.0283003
-0.0320536
-0.0705282
-0.0889565
3.65259
4.79184
4.12302
2.60794
1.23694
-0.118485
-1.7714
-4.36427
2.28484
-0.0972678
-0.199395
-0.257545
-0.313796
-0.325918
-0.265493
0.0319751
0.487542
3.10078
0.17841
0.190363
0.196983
0.127624
0.0139162
-0.0710801
-0.00419632
0.197245
1.19498
0.106596
0.100242
0.0650823
-0.0231625
-0.144821
-0.237449
-0.255729
-0.345077
-0.0827213
0.0771934
0.0359011
-0.0304351
-0.119946
-0.221346
-0.295642
-0.32353
-0.435252
-0.316976
0.0326885
-0.0175941
-0.0821947
-0.160597
-0.236207
-0.28707
-0.306023
-0.373654
-0.256623
0.00803715
-0.0350005
-0.0854677
-0.145123
-0.198737
-0.232307
-0.246193
-0.292282
-0.206196
-0.00371123
-0.0281412
-0.056493
-0.0902199
-0.121541
-0.143016
-0.152661
-0.184637
-0.133666
-0.00548799
-0.00930972
-0.0135611
-0.019284
-0.0261253
-0.0348814
-0.0396741
-0.0743107
-0.0878504
2.852
3.52217
3.12057
2.12415
1.13982
0.262911
-0.407183
-1.31666
2.36336
0.287392
0.188206
0.205179
0.0771092
-0.0984281
-0.188063
-0.0678186
0.189108
1.39748
0.187292
0.192421
0.21747
0.151712
0.00132973
-0.121434
-0.0883268
0.0764303
0.426909
0.135516
0.135665
0.105513
0.017939
-0.119306
-0.230941
-0.237432
-0.189145
-0.0386157
0.101947
0.0774121
0.0147192
-0.0814243
-0.196898
-0.280772
-0.293419
-0.256766
-0.148315
0.0588489
0.0225307
-0.0442493
-0.13333
-0.225033
-0.280197
-0.286724
-0.23154
-0.147623
0.0279229
-0.00562331
-0.0602408
-0.129925
-0.195599
-0.229861
-0.232393
-0.179294
-0.128847
0.00722137
-0.0126154
-0.0436732
-0.0832023
-0.119863
-0.142902
-0.144859
-0.101999
-0.0782178
-0.00364989
-0.00684473
-0.0115557
-0.0177883
-0.0240996
-0.0368244
-0.0342815
-0.0306488
-0.0508942
)
;

boundaryField
{
    inlet
    {
        type            zeroGradient;
    }
    outlet
    {
        type            fixedValue;
        value           uniform 0;
    }
    lowerWall
    {
        type            zeroGradient;
    }
    upperWall
    {
        type            zeroGradient;
    }
}


// ************************************************************************* //
