/*--------------------------------*- C++ -*----------------------------------*\
  =========                 |
  \\      /  F ield         | OpenFOAM: The Open Source CFD Toolbox
   \\    /   O peration     | Website:  https://openfoam.org
    \\  /    A nd           | Version:  11
     \\/     M anipulation  |
\*---------------------------------------------------------------------------*/
FoamFile
{
    format      ascii;
    class       surfaceScalarField;
    location    "500";
    object      phi;
}
// * * * * * * * * * * * * * * * * * * * * * * * * * * * * * * * * * * * * * //

dimensions      [0 3 -1 0 0 0 0];

internalField   nonuniform List<scalar> 
1944
(
0.00824824
-0.00197679
-0.00636688
0.0119591
0.00255237
-0.00629169
0.0170233
0.000555168
-0.00564873
0.0204383
0.000790249
-0.00421529
0.0227724
0.000345766
-0.00268388
0.0240101
-0.000479158
-0.000759245
0.0232324
-0.00181626
0.00259594
0.0196588
-0.00307282
0.00664756
0.0157282
0.00393311
-0.00254641
-0.00361651
0.0041397
0.000800457
-0.00430887
0.00347186
0.00447614
-0.0051681
0.00202847
0.00799416
-0.00405702
0.00132023
0.0106172
-0.0031023
0.000821266
0.0115992
-0.00207876
0.000617099
0.00986482
-0.000825048
0.000743714
0.00339326
0.00270798
0.000692944
0.0195083
-0.000385293
-0.000641557
-0.00315874
0.000147756
0.00149605
-0.00766081
0.00119924
0.00322451
-0.00853702
0.00163175
0.00501675
-0.00759526
0.00174045
0.00616889
-0.00569315
0.00143624
0.00610229
-0.00294854
0.000935413
0.00400746
0.00100776
0.000262236
-0.000566604
0.00805933
-0.000776132
0.0210816
-0.00213895
0.000922442
-0.00507159
0.00098392
0.00170645
-0.00956719
0.001119
0.00261647
-0.0104303
0.000981342
0.00350345
-0.00945627
0.00097225
0.00387106
-0.0069654
0.000903162
0.00330233
-0.0031099
0.000729221
0.0014767
0.00250461
0.000328621
-0.00180061
0.0118483
-0.000511202
0.0212427
-0.00196149
0.000953013
-0.00664227
0.00061679
0.00148888
-0.0108154
0.000712427
0.00198895
-0.0115563
0.000626117
0.00243627
-0.0103744
0.000470782
0.00248541
-0.00736103
0.000345945
0.0017925
-0.00276697
0.000349493
4.06325e-05
0.00397803
0.000278294
-0.00223047
0.0143856
-0.000265969
0.0205564
-0.00154409
0.000731509
-0.00784964
0.000474812
0.00101219
-0.0115973
0.00050084
0.00125614
-0.0121945
0.000394574
0.00143233
-0.0107674
0.000217137
0.00130284
-0.00724838
1.68121e-05
0.000594586
-0.00207629
1.73195e-05
-0.00104164
0.00551175
0.000102458
-0.00237901
0.0159147
-0.000191684
0.0194331
-0.00125567
0.000431109
-0.00856953
0.000287003
0.000534355
-0.0119912
0.000290269
0.000626588
-0.0124897
0.000203151
0.000645879
-0.010844
5.74499e-05
0.000410625
-0.00687763
-0.000135466
-0.000335247
-0.00115834
-0.000172127
-0.00174166
0.00696129
-4.30767e-05
-0.00237303
0.0167262
-0.000180015
0.0180831
-0.00102303
0.000183438
-0.00891285
0.00015851
0.000180275
-0.0121378
0.000149287
0.000170107
-0.0125615
8.17749e-05
9.27451e-05
-0.0107445
-2.20304e-05
-0.000180903
-0.00643984
-0.000164093
-0.00100768
-5.54434e-05
-0.000276095
-0.0021796
0.00831406
-0.000180802
-0.00229705
0.0170728
-0.000229211
0.0166579
-0.000871911
5.38252e-05
8.85818e-05
1.84104e-05
7.07959e-05
-4.85637e-05
2.08563e-05
-0.000188668
-5.0547e-05
-0.00053992
-0.000146422
-0.00147499
-0.000292908
-0.00219534
-0.000272012
-0.00192048
-0.000321455
-0.000688496
0.00492053
-0.00657918
-0.00472941
0.0112515
-0.00806985
-0.00456868
0.0155145
-0.00566302
-0.0042566
0.0185052
-0.00385892
-0.00335236
0.0208839
-0.00289839
-0.00216656
0.023119
-0.00239467
-0.000600035
0.0255627
-0.00188001
0.00203288
0.0253381
0.00215046
0.00472384
0.0244647
0.00480868
0.000972572
-0.0059993
0.00259337
0.00350748
-0.00873329
0.00159682
0.00711481
-0.00797509
0.000728377
0.0103208
-0.0061062
0.000357919
0.0124058
-0.00438957
0.000225799
0.0129636
-0.00267829
0.000342408
0.0111945
-0.000154574
0.000788023
0.00663178
0.00626879
0.00113892
0.0287187
0.00199367
0.000867487
-0.0078599
0.00115858
0.00292856
-0.0113435
0.00175037
0.0047829
-0.0101788
0.00197922
0.00660235
-0.00793469
0.00174751
0.00764793
-0.00530764
0.0013075
0.00732013
-0.00222287
0.000807365
0.00505823
0.0021154
0.000254425
0.00114832
0.00986039
-0.000457016
0.0282809
-0.000552318
0.00117109
-0.00919682
0.00115788
0.00189754
-0.012054
0.00110645
0.00285784
-0.0112069
0.00104995
0.00383834
-0.00898606
0.00104275
0.00430379
-0.00577232
0.000901851
0.00386221
-0.00166732
0.000614901
0.00229989
0.00385155
0.000154753
-0.000246984
0.0124078
-0.00051156
0.0271968
-0.00112423
0.0011102
-0.0103693
0.000683045
0.00165823
-0.0125684
0.000680913
0.00211406
-0.0115759
0.000540725
0.00248433
-0.00930875
0.000423751
0.00248276
-0.00576573
0.000340934
0.00194477
-0.00106365
0.000283601
0.000832234
0.00515381
8.83817e-05
-0.000803093
0.0141378
-0.000360792
0.0258323
-0.000982846
0.000799692
-0.0111394
0.000446378
0.00106122
-0.0127315
0.00040361
0.00128787
-0.0116874
0.000280388
0.00141402
-0.00934236
0.000125175
0.00125329
-0.00556957
-1.84388e-05
0.000712063
-0.000471023
-3.4169e-05
-0.000172304
0.00619004
-4.95834e-05
-0.0012018
0.0152782
-0.000302743
0.0242062
-0.000831585
0.000472677
-0.0115731
0.000247808
0.000560964
-0.0127389
0.000209654
0.000642886
-0.0116833
0.000117612
0.000624346
-0.00925079
-1.51872e-05
0.000388726
-0.00529374
-0.000175492
-0.000124732
0.000100335
-0.000230047
-0.000849131
0.00704785
-0.000176622
-0.00141243
0.0159511
-0.000289854
0.022483
-0.000712359
0.000213994
-0.0117606
0.000131805
0.000214171
-0.0126916
0.000101792
0.00019633
-0.0116172
3.37702e-05
9.16037e-05
-0.00910256
-6.52964e-05
-0.00018173
-0.00497756
-0.000206809
-0.000696162
0.000663202
-0.000324551
-0.00131195
0.00776439
-0.000281625
-0.00150582
0.0162232
-0.000307513
0.0207226
-0.000617497
7.72165e-05
8.20481e-05
5.58902e-05
5.7519e-05
-1.69065e-05
3.19984e-06
-0.000176766
-7.28132e-05
-0.000486853
-0.000175696
-0.00100537
-0.000298208
-0.00144215
-0.00030884
-0.0013179
-0.000311876
-0.000481231
0.00448734
-0.00653063
-0.00264935
0.0116917
-0.00918474
-0.00258509
0.0158667
-0.00600285
-0.002431
0.0185814
-0.00410726
-0.00196202
0.0208303
-0.00314119
-0.0012756
0.023221
-0.00266407
-0.000327173
0.0261702
-0.00207419
0.00115848
0.0250367
0.00324599
0.00261279
0.0266613
0.00318518
0.0032326
-0.00847249
0.00132575
0.004955
-0.0100749
0.000768676
0.00811226
-0.00866828
0.000236244
0.0109098
-0.00657343
2.54614e-05
0.0126535
-0.00466977
9.84742e-06
0.0128833
-0.00271499
0.000163334
0.01075
0.000326123
0.000521396
0.00607983
0.00811865
0.000937342
0.0326111
0.00212438
0.00141491
-0.00980268
0.00108635
0.00356843
-0.0117962
0.0013229
0.00545474
-0.00982587
0.00125173
0.00707277
-0.00745238
0.00100822
0.00784718
-0.00485584
0.000718734
0.00718422
-0.00168086
0.000436024
0.00453357
0.00307252
0.000158849
0.000373939
0.0119134
-9.17173e-05
0.0320313
0.000401705
0.00108672
-0.0104593
0.000736701
0.00182937
-0.0121513
0.000723221
0.00289439
-0.0105779
0.000738978
0.00391232
-0.00814711
0.000720058
0.00430657
-0.0049298
0.000581489
0.00369074
-0.0008052
0.000354959
0.00189623
0.00496938
5.23794e-05
-0.000763696
0.0143301
-0.000268303
0.0303674
-0.000224088
0.00105711
-0.0112932
0.000464823
0.001587
-0.0124386
0.000441227
0.00205579
-0.0108689
0.000364688
0.00240407
-0.00837521
0.000304324
0.00234998
-0.00478129
0.000246701
0.00172394
-5.88133e-05
0.000163189
0.000500458
0.00628651
-5.37575e-06
-0.00108925
0.0157995
-0.000240569
0.0285683
-0.000273067
0.00076211
-0.0118957
0.000288677
0.00100701
-0.0125323
0.000253719
0.00123627
-0.0109923
0.000175545
0.00132925
-0.00841822
7.57965e-05
0.00110739
-0.00456767
-9.97206e-06
0.000493534
0.000561674
-4.08026e-05
-0.000442374
0.00726399
-9.12882e-05
-0.00140459
0.0166951
-0.00023631
0.0265942
-0.000262199
0.000452668
-0.0122598
0.000159947
0.000535691
-0.0125356
0.000130374
0.000606195
-0.0110113
6.65302e-05
0.000548477
-0.00834838
-2.69175e-05
0.000256336
-0.00431735
-0.000133475
-0.000309869
0.00107743
-0.000179604
-0.00105265
0.00800563
-0.00017559
-0.00156258
0.0171621
-0.000247164
0.0245786
-0.000259515
0.000205792
-0.0124172
8.32271e-05
0.000202484
-0.0124914
6.10472e-05
0.000174103
-0.010961
1.20759e-05
3.19932e-05
-0.00820979
-6.16211e-05
-0.000291533
-0.00403781
-0.000162765
-0.000831363
0.00153543
-0.000242736
-0.00144368
0.00857756
-0.000241319
-0.0015946
0.0172697
-0.000264309
0.0226175
-0.000250992
7.47031e-05
5.38356e-05
5.23258e-05
3.40425e-05
-3.14576e-05
-6.45318e-06
-0.000219185
-6.47263e-05
-0.000557366
-0.000143037
-0.00105627
-0.000224125
-0.00149277
-0.000247318
-0.00135081
-0.000251608
-0.000215458
0.00445904
-0.0063079
-0.000800205
0.0120067
-0.00931517
-0.000816451
0.0161917
-0.00584309
-0.000772965
0.0188186
-0.00395993
-0.000629694
0.0210252
-0.00307489
-0.000408078
0.0234824
-0.00268916
-9.56395e-05
0.0263912
-0.00212906
0.000378851
0.0246229
0.00354555
0.000835992
0.0267326
0.00107613
0.00408622
-0.00946186
0.000404049
0.00558922
-0.0102918
0.000244331
0.00858605
-0.00866877
6.54495e-05
0.0111969
-0.00653811
-7.58908e-06
0.0127529
-0.00461395
-7.52615e-06
0.0127698
-0.00259607
5.30965e-05
0.0103375
0.000641773
0.000182919
0.00547059
0.00899673
0.000353483
0.033485
0.000842796
0.00163859
-0.0104149
0.00041362
0.00397836
-0.0117869
0.000482012
0.00583964
-0.0096986
0.000421403
0.00728943
-0.00730309
0.000323591
0.00783903
-0.00467064
0.000225665
0.00690343
-0.00136145
0.000136863
0.00393332
0.00371397
5.68001e-05
-0.000446947
0.0132753
1.02172e-05
0.0331729
0.000267017
0.00104884
-0.010944
0.000223625
0.00187332
-0.0121379
0.000253028
0.00298409
-0.0103337
0.000264756
0.00395273
-0.00780096
0.000249714
0.00420626
-0.00453772
0.000195091
0.0033788
-0.000292301
0.000113208
0.00132631
0.00580626
1.25719e-05
-0.00148098
0.0158877
-7.34302e-05
0.0314439
2.39408e-05
0.00102607
-0.0116549
0.000152659
0.00154335
-0.0123597
0.000147467
0.00199775
-0.0105496
0.000127249
0.00230127
-0.00790835
0.000108699
0.00216392
-0.00424009
8.65596e-05
0.00139797
0.000586412
5.04086e-05
-6.63632e-06
0.0072164
-1.09332e-05
-0.00162895
0.0173462
-7.67866e-05
0.0295602
-1.83438e-05
0.000734633
-0.0121937
9.40617e-05
0.000962714
-0.0124174
8.40424e-05
0.00116961
-0.0106387
5.82865e-05
0.00121231
-0.00789888
2.39982e-05
0.000910067
-0.00394266
-5.01969e-06
0.000186048
0.00128914
-1.949e-05
-0.000878954
0.00823168
-4.16055e-05
-0.00183017
0.0181439
-8.28522e-05
0.0274991
-3.13536e-05
0.000433311
-0.0125195
5.23017e-05
0.000501875
-0.0123978
4.23895e-05
0.000548769
-0.0106388
1.99286e-05
0.000445416
-0.00780831
-1.39401e-05
8.40507e-05
-0.00366319
-5.14702e-05
-0.000571262
0.00183404
-6.91728e-05
-0.00140878
0.00896546
-7.18905e-05
-0.00190397
0.018483
-9.11453e-05
0.0253797
-4.4148e-05
0.000193568
-0.012656
2.59143e-05
0.000179982
-0.0123417
1.84848e-05
0.000131785
-0.0105792
7.6567e-07
-4.94805e-05
-0.0076619
-2.66746e-05
-0.000433106
-0.00337898
-6.32792e-05
-0.00103833
0.00228821
-9.16747e-05
-0.00171778
0.00949823
-9.46686e-05
-0.00185683
0.018456
-9.8308e-05
0.0233221
-5.02277e-05
6.77972e-05
1.87013e-05
3.70579e-05
1.08522e-05
-6.28639e-05
-4.54242e-06
-0.000280642
-2.67322e-05
-0.000663663
-5.60539e-05
-0.00119872
-8.5234e-05
-0.00167866
-9.49211e-05
-0.0015396
-9.09171e-05
-4.51492e-05
0.00445331
-0.00620468
0.000984848
0.0121202
-0.00935962
0.000876034
0.0163131
-0.00578752
0.000820762
0.0189182
-0.00389942
0.00066415
0.021114
-0.00303972
0.000435693
0.0235838
-0.00268469
0.000119217
0.0264528
-0.00213207
-0.000358116
0.0244767
0.00363246
-0.000820017
0.0266249
-0.00107193
0.00432922
-0.00974719
-0.000379351
0.005772
-0.0103516
-0.000205789
0.00873034
-0.00865734
-2.39591e-05
0.0112885
-0.00650391
3.83399e-05
0.012785
-0.00457492
3.1029e-05
0.0127295
-0.002542
-3.41248e-05
0.0101962
0.000751598
-0.000167461
0.00525857
0.00926562
-0.000341859
0.0335633
-0.000836906
0.0017289
-0.0105768
-0.000483115
0.00412294
-0.0117997
-0.000463451
0.00596192
-0.00968238
-0.000393267
0.0073514
-0.00726423
-0.000305882
0.00782188
-0.00460757
-0.00021222
0.00678893
-0.00124655
-0.000125666
0.0037055
0.0039395
-4.76404e-05
-0.00075074
0.0137358
-3.60093e-06
0.0333437
-0.000264113
0.00104874
-0.0110853
-0.000312432
0.00190109
-0.0121355
-0.000263378
0.00301887
-0.0102717
-0.000264111
0.00395924
-0.00770253
-0.000252393
0.00415492
-0.00441282
-0.000195348
0.00324452
-0.000111859
-0.000111075
0.00109345
0.00611225
-9.09304e-06
-0.00176014
0.016439
7.69075e-05
0.0316298
-2.22735e-05
0.00101812
-0.0117591
-0.000190198
0.00152676
-0.0123296
-0.000166957
0.0019719
-0.0104516
-0.000138139
0.00225561
-0.00775902
-0.000118492
0.00208169
-0.00405866
-9.36579e-05
0.00125641
0.000818098
-5.42558e-05
-0.000220646
0.00756819
1.0195e-05
-0.00184802
0.0179118
7.78438e-05
0.0297442
1.92303e-05
0.000723286
-0.0122775
-0.000110948
0.000944737
-0.0123735
-9.37358e-05
0.00113957
-0.0105221
-6.60423e-05
0.00116028
-0.00772309
-3.26216e-05
0.00082326
-0.0037233
-3.32288e-06
5.1429e-05
0.00155735
1.31053e-05
-0.0010684
0.00860801
3.83876e-05
-0.00200867
0.0186871
8.20865e-05
0.0276725
3.15631e-05
0.000424993
-0.0125887
-6.17867e-05
0.000486965
-0.0123443
-4.90236e-05
0.000523025
-0.0105122
-2.60981e-05
0.000399838
-0.00762094
7.09806e-06
7.44185e-06
-0.00342645
4.41037e-05
-0.000689112
0.00212214
6.25922e-05
-0.00157074
0.0093501
6.76423e-05
-0.00205335
0.0189893
8.92285e-05
0.0255312
4.38205e-05
0.000188115
-0.0127178
-3.35831e-05
0.000169794
-0.0122833
-2.43858e-05
0.000112508
-0.0104478
-6.41722e-06
-8.60471e-05
-0.00746986
2.07771e-05
-0.000496894
-0.00313604
5.71373e-05
-0.0011364
0.00258399
8.59871e-05
-0.00185104
0.00987969
9.03606e-05
-0.00197886
0.0189229
9.58404e-05
0.0234525
4.95716e-05
6.37882e-05
-1.79671e-05
2.91675e-05
-1.18992e-05
-7.82189e-05
2.29489e-06
-0.000309557
2.35283e-05
-0.000713912
5.21427e-05
-0.00127305
8.0806e-05
-0.001779
9.11327e-05
-0.00163566
8.83436e-05
4.43416e-05
0.00439572
-0.00639375
0.0030251
0.0119998
-0.00940984
0.00269478
0.0161894
-0.00586022
0.0024889
0.0188183
-0.00396228
0.00199607
0.0210257
-0.00307339
0.00130064
0.0234834
-0.00268729
0.000348322
0.0263913
-0.00212698
-0.00113936
0.0246218
0.00354868
-0.00259931
0.0267357
-0.00318606
0.00414384
-0.00948761
-0.00143098
0.00559776
-0.0103572
-0.00071521
0.00858392
-0.00869439
-0.000177004
0.0111938
-0.00654308
8.63197e-06
0.0127513
-0.0046129
1.29449e-05
0.0127688
-0.00259338
-0.000145654
0.0103361
0.000645432
-0.000507239
0.00546889
0.00900204
-0.000927967
0.0334907
-0.002123
0.00167748
-0.0103469
-0.00131261
0.00400214
-0.0117921
-0.00136145
0.0058462
-0.00970641
-0.00122693
0.00728863
-0.00730294
-0.000988636
0.00783677
-0.00466901
-0.00070423
0.00690125
-0.00135842
-0.000425108
0.00393114
0.00371822
-0.000150335
-0.000449193
0.0132817
9.70945e-05
0.033179
-0.000401696
0.00104965
-0.0108836
-0.000827463
0.00188527
-0.0121227
-0.000772703
0.0029936
-0.0103289
-0.00075278
0.00395444
-0.00779467
-0.000722482
0.00420502
-0.0045335
-0.000581683
0.00337703
-0.000288334
-0.000353235
0.0013243
0.00581109
-4.92454e-05
-0.00148313
0.0158949
0.000271138
0.0314498
0.000223792
0.0010375
-0.0116245
-0.000489191
0.00155044
-0.012346
-0.000458914
0.00200031
-0.0105434
-0.000374939
0.00230157
-0.00790184
-0.00031338
0.0021632
-0.0042353
-0.000253755
0.00139675
0.000591021
-0.000167261
-8.29859e-06
0.00722181
4.50483e-06
-0.00163066
0.0173538
0.000241297
0.0295659
0.000272471
0.000736072
-0.0121708
-0.000302312
0.000965407
-0.0124058
-0.000264559
0.00117057
-0.0106318
-0.000183673
0.00121287
-0.00789348
-8.36823e-05
0.000909849
-0.00393805
2.26816e-06
0.000185255
0.00129399
3.46809e-05
-0.000880234
0.00823747
8.82078e-05
-0.00183144
0.0181516
0.000235465
0.0275047
0.000261289
0.000435194
-0.0125006
-0.000168688
0.000503745
-0.012387
-0.000137297
0.000549904
-0.0106322
-7.24532e-05
0.000446197
-0.00780373
2.07658e-05
8.4221e-05
-0.00365901
0.000126906
-0.000571693
0.00183886
0.000173594
-0.00140971
0.00897139
0.000171714
-0.00190491
0.0184907
0.000245352
0.0253852
0.000258348
0.000194886
-0.0126394
-9.07108e-05
0.000181541
-0.0123318
-6.68331e-05
0.000133109
-0.010573
-1.75226e-05
-4.84672e-05
-0.00765772
5.61881e-05
-0.000432591
-0.00337508
0.000157283
-0.00103854
0.00229312
0.000237677
-0.00171848
0.00950418
0.000237521
-0.00185756
0.0184635
0.000262055
0.0233276
0.000249706
6.84163e-05
-5.33341e-05
3.78722e-05
-3.51462e-05
-6.21319e-05
4.32515e-06
-0.000280087
6.17968e-05
-0.000663297
0.000139549
-0.00119892
0.000220196
-0.00167924
0.000244011
-0.0015402
0.000249248
0.000214215
0.00422311
-0.00628813
0.00511884
0.0116531
-0.00949566
0.00478611
0.0158615
-0.00601921
0.00431468
0.0185845
-0.00410603
0.0033771
0.0208347
-0.0031344
0.00218336
0.0232261
-0.00265887
0.000614094
0.0261715
-0.00206869
-0.00201721
0.0250367
0.00325267
-0.00471806
0.0266674
-0.00481775
0.00358644
-0.00821152
-0.00305806
0.00492134
-0.0101787
-0.00135877
0.00808449
-0.00872457
-0.000630266
0.0108952
-0.00658669
-0.000317078
0.0126487
-0.00466735
-0.000206672
0.0128816
-0.00270916
-0.000327994
0.0107483
0.000334004
-0.000776904
0.00607826
0.00812861
-0.00113416
0.0326217
-0.00199966
0.00166168
-0.0096526
-0.00158272
0.00362585
-0.0117128
-0.00180674
0.00544703
-0.00984261
-0.00192835
0.00705993
-0.00745694
-0.00172778
0.00783931
-0.0048549
-0.00129395
0.00717942
-0.00167532
-0.000798146
0.00453031
0.00308062
-0.000247521
0.000371219
0.0119246
0.000460106
0.0320428
0.000548204
0.00114286
-0.01038
-0.00127997
0.00187779
-0.012087
-0.00114557
0.0029059
-0.010564
-0.00106169
0.00391079
-0.00813764
-0.00104647
0.00430257
-0.004924
-0.0009037
0.00368745
-0.000798204
-0.000614813
0.00189344
0.00497808
-0.000152474
-0.000766394
0.0143424
0.00051325
0.0303785
0.00112161
0.00106161
-0.01123
-0.000705482
0.00160252
-0.0124014
-0.000688896
0.00206262
-0.0108535
-0.00054812
0.00240532
-0.00836366
-0.000431066
0.00234893
-0.00477375
-0.000347889
0.00172231
-5.0724e-05
-0.000288028
0.000498437
0.00629594
-8.9398e-05
-0.00109128
0.0158123
0.000361095
0.028579
0.000980717
0.00076659
-0.0118419
-0.000458077
0.00101324
-0.0125046
-0.000409406
0.00123904
-0.0109781
-0.000286004
0.0013311
-0.00840892
-0.000131155
0.0011078
-0.00456036
1.19831e-05
0.000492928
0.000569914
2.89049e-05
-0.000443656
0.00727381
4.69516e-05
-0.0014059
0.0167081
0.00030199
0.0266048
0.00082955
0.000456541
-0.0122125
-0.000255633
0.000540171
-0.0125104
-0.00021594
0.000609075
-0.0109979
-0.000122195
0.000550624
-0.00834054
1.04587e-05
0.000257431
-0.00431087
0.000170457
-0.000309791
0.00108533
0.000225389
-0.00105332
0.00801545
0.000173619
-0.00156338
0.017175
0.000288457
0.0245893
0.000710451
0.000208173
-0.0123744
-0.000137943
0.00020596
-0.0124687
-0.00010696
0.0001772
-0.0109483
-3.87454e-05
3.44751e-05
-0.00820265
6.08147e-05
-0.00028988
-0.00403189
0.000202584
-0.000830952
0.00154335
0.000320743
-0.00144406
0.0085872
0.000278884
-0.00159516
0.0172823
0.00030586
0.0226281
0.000615739
7.64023e-05
-8.21176e-05
5.42267e-05
-5.85633e-05
-2.97207e-05
-5.03138e-06
-0.000217777
7.04306e-05
-0.000556091
0.000172961
-0.00105599
0.000295143
-0.00149312
0.000306472
-0.00135129
0.000310066
0.0004798
0.00382187
-0.00458103
0.00614341
0.0111918
-0.00898645
0.00648497
0.0155298
-0.0055989
0.00558633
0.0185309
-0.00384714
0.00422953
0.0209067
-0.0028782
0.00268384
0.023139
-0.00238386
0.000763367
0.0255697
-0.00186624
-0.00258394
0.0253418
0.00216358
-0.00665591
0.0244683
-0.00394614
0.0019623
-0.00473397
-0.00487103
0.00315562
-0.00926587
-0.00227374
0.00700304
-0.0081285
-0.00192825
0.010284
-0.00615336
-0.00128008
0.0123977
-0.00438992
-0.000803248
0.012963
-0.00267039
-0.000605247
0.0111969
-0.000140407
-0.000736672
0.00663358
0.00628274
-0.000691142
0.0287269
0.000374395
0.00174566
-0.00753735
-0.000670922
0.00296187
-0.0112695
-0.00103853
0.00475869
-0.0102204
-0.00162221
0.00657049
-0.00795428
-0.00172843
0.00763319
-0.00530967
-0.00143122
0.00731331
-0.0022156
-0.000930574
0.00505686
0.00212724
-0.000257887
0.00114827
0.00987402
0.000777379
0.0282901
0.00213302
0.00133074
-0.00904967
-0.00114781
0.00197507
-0.0119928
-0.00107918
0.00287859
-0.0111909
-0.000997321
0.00383618
-0.00898015
-0.000976596
0.00429872
-0.00576744
-0.000906711
0.00385911
-0.00165874
-0.000730794
0.00229915
0.0038628
-0.000327395
-0.000246735
0.0124214
0.000511845
0.027207
0.00195794
0.0011285
-0.0102492
-0.000646857
0.00167679
-0.0125206
-0.000716924
0.0021267
-0.0115558
-0.000637003
0.00248937
-0.00929863
-0.000476896
0.00248321
-0.00575872
-0.000350486
0.0019444
-0.00105447
-0.000353162
0.000832349
0.0051649
-0.000279172
-0.000802495
0.0141515
0.000265875
0.0258438
0.00154134
0.000811097
-0.011036
-0.000485034
0.00106915
-0.0126839
-0.000506587
0.00129298
-0.0116687
-0.00039909
0.00141828
-0.00933355
-0.000222595
0.00125562
-0.00556326
-2.12248e-05
0.000713106
-0.000462214
-2.08404e-05
-0.000171377
0.0062007
-0.000104305
-0.00120084
0.0152919
0.000191003
0.0242191
0.00125341
0.000479958
-0.0114797
-0.000293234
0.000569782
-0.0126938
-0.0002972
0.000648255
-0.0116646
-0.000205846
0.000628615
-0.00924294
-6.11808e-05
0.000391837
-0.00528857
0.000132246
-0.000122903
0.000108187
0.000169658
-0.000847668
0.00705781
4.12625e-05
-0.00141129
0.015965
0.000179069
0.022497
0.00102128
0.000218671
-0.0116744
-0.000162743
0.000220315
-0.0126498
-0.000153224
0.000202002
-0.011598
-8.75381e-05
9.63026e-05
-0.0090953
1.85447e-05
-0.000177936
-0.00497333
0.000161485
-0.000694005
0.000670961
0.000274002
-0.00131042
0.00777382
0.000179332
-0.00150485
0.0162371
0.000228195
0.0207373
0.000870579
7.96386e-05
-8.91365e-05
5.90222e-05
-7.16639e-05
-1.389e-05
-2.19088e-05
-0.000174137
4.89363e-05
-0.000483771
0.000144585
-0.00100364
0.000290801
-0.00144109
0.000270699
-0.00131721
0.000320398
0.000687953
0.003289
0.0029581
0.0126862
-0.00289664
0.0170912
0.00120087
0.0205977
0.000730271
0.0228554
0.000428218
0.0240801
-0.00046197
0.0232636
-0.00176891
0.0196671
-0.0030615
0.0157202
-0.00141654
-0.000570508
-0.0004267
-0.0061547
0.00422819
-0.00536253
0.00788219
-0.00419075
0.0106135
-0.00310033
0.0116079
-0.00205955
0.00989235
-0.000789998
0.00341558
0.00272327
0.0195099
0.00121786
-0.00252683
0.0016109
-0.00758783
0.00325011
-0.00861521
0.00496331
-0.00762486
0.00614374
-0.00570771
0.00609145
-0.00293569
0.0040145
0.00102984
-0.000555571
0.00807052
0.0210873
0.00112697
-0.00483138
0.0018773
-0.00942543
0.00266274
-0.0103991
0.00351163
-0.00944943
0.00386536
-0.00696667
0.00330009
-0.00310002
0.00148402
0.00251904
-0.00179142
0.0118579
0.0212538
0.000972329
-0.00646099
0.00153387
-0.0107087
0.00201445
-0.0115192
0.00244971
-0.0103622
0.00249042
-0.00735775
0.00179568
-0.00275801
4.81739e-05
0.00398765
-0.00222347
0.0143954
0.0205717
0.000742515
-0.00769153
0.00102988
-0.0115049
0.00126939
-0.0121591
0.0014422
-0.0107583
0.00131011
-0.00724706
0.000599898
-0.00206856
-0.00103435
0.00551762
-0.00237373
0.0159258
0.0194514
0.000439783
-0.00842569
0.00054682
-0.01191
0.000636114
-0.012455
0.000654119
-0.0108379
0.000418435
-0.00687928
-0.000329092
-0.00115141
-0.00173509
0.00696493
-0.00236917
0.016739
0.0181035
0.000189371
-0.00877825
0.000190344
-0.0120646
0.000178425
-0.0125309
0.000101435
-0.0107425
-0.000172082
-0.00644433
-0.0010012
-4.824e-05
-0.00217418
0.00831724
-0.00229458
0.0170876
0.0166795
5.7147e-05
2.33317e-05
-4.38325e-05
-0.000184269
-0.00053233
-0.00147002
-0.00219193
-0.00191905
)
;

boundaryField
{
    inlet
    {
        type            calculated;
        value           uniform 0;
    }
    outlet
    {
        type            calculated;
        value           nonuniform List<scalar> 
81
(
-0.0090553
-0.0118313
-0.0124637
-0.0126886
-0.012745
-0.0126725
-0.012422
-0.0117471
-0.00892455
-0.0121732
-0.012657
-0.0124456
-0.0122878
-0.012226
-0.012278
-0.0124231
-0.0126161
-0.0121025
-0.0125153
-0.0115267
-0.0108676
-0.0104812
-0.0103473
-0.010475
-0.010855
-0.0115082
-0.0124857
-0.0105539
-0.00892042
-0.00803014
-0.00748211
-0.00728879
-0.00747805
-0.00802324
-0.00891357
-0.0105532
-0.00594217
-0.00463819
-0.00373228
-0.00308294
-0.00283988
-0.00307928
-0.00372699
-0.00463533
-0.00595168
0.00117255
0.00118699
0.00196024
0.00268438
0.00297708
0.00268936
0.0019683
0.00119519
0.00118026
0.00930643
0.00823797
0.0089525
0.00982576
0.0101996
0.00983163
0.00896189
0.00824704
0.00930987
0.0171194
0.0160893
0.0170674
0.0181563
0.0186003
0.0181636
0.0170797
0.0161029
0.0171351
0.0154259
0.0191974
0.0210009
0.0216122
0.0217274
0.0216175
0.0210113
0.019212
0.0154484
)
;
    }
    lowerWall
    {
        type            calculated;
        value           uniform 0;
    }
    upperWall
    {
        type            calculated;
        value           uniform 0;
    }
}


// ************************************************************************* //
