/*--------------------------------*- C++ -*----------------------------------*\
  =========                 |
  \\      /  F ield         | OpenFOAM: The Open Source CFD Toolbox
   \\    /   O peration     | Website:  https://openfoam.org
    \\  /    A nd           | Version:  11
     \\/     M anipulation  |
\*---------------------------------------------------------------------------*/
FoamFile
{
    format      ascii;
    class       volScalarField::Internal;
    location    "500";
    object      tmp<kEpsilon:G>;
}
// * * * * * * * * * * * * * * * * * * * * * * * * * * * * * * * * * * * * * //

dimensions      [0 2 -3 0 0 0 0];

value           nonuniform List<scalar> 
729
(
4.31253
8.20924
10.7792
12.7487
14.7393
15.3175
15.198
9.3813
10.5009
0.383277
0.761427
0.796438
1.57565
2.58079
3.39089
3.49222
1.9019
3.97733
0.0118734
0.0754641
0.140187
0.302954
0.550611
0.796723
0.846554
0.90536
3.24961
0.00581287
0.0209513
0.0460047
0.0678798
0.137017
0.213814
0.285421
1.16763
2.50107
0.00840847
0.027936
0.0509146
0.0689642
0.0924701
0.097224
0.187263
1.10976
1.82441
0.0107917
0.0329372
0.0624782
0.0828568
0.0855027
0.0548829
0.19156
0.971614
1.32543
0.0122217
0.0373729
0.0657163
0.0863436
0.0819943
0.0301291
0.210674
0.809604
0.944309
0.0130074
0.0385605
0.0686831
0.0888112
0.0764184
0.0136483
0.229489
0.701836
0.717134
0.0133244
0.0391342
0.0686085
0.0876538
0.0707354
0.0217181
0.227043
0.525522
0.457082
13.1395
860.822
1099.44
1251.25
1321.3
1304.44
1134.35
893.655
35.0451
0.616145
5.40389
4.8001
5.5705
6.02886
6.81839
7.42635
3.45011
14.9807
0.0501087
0.477007
1.00096
1.18184
0.651525
0.159733
2.37518
12.7477
9.297
0.020075
0.08417
0.0177942
0.0581974
0.0460615
0.247435
2.21316
9.1689
6.24272
0.0280485
0.0328484
0.0209499
0.0738269
0.176897
0.611603
2.19929
5.43104
4.13555
0.0309985
0.0158621
0.0206313
0.108268
0.313247
0.815554
2.0757
3.20076
2.78923
0.0343333
0.00583437
0.0303997
0.15966
0.426625
0.946762
1.92797
1.9412
1.89966
0.0353732
0.00141095
0.0450546
0.214044
0.534315
1.04139
1.79103
1.2719
1.39523
0.0358535
0.000402672
0.0621559
0.268735
0.651405
1.14521
1.53508
0.68231
0.870873
15.3832
1008.57
1301
1532.74
1657.31
1657.17
1431.13
1095.29
47.6451
0.648619
7.8382
5.88513
6.28428
6.72703
8.07807
8.75777
5.30657
21.5328
0.0912245
0.694544
1.23701
1.2591
0.556097
0.351245
4.70053
20.0533
13.433
0.0351763
0.0147364
0.0282985
0.0699565
0.0602077
0.489917
3.86559
14.3125
8.98907
0.0444068
0.0123737
0.0535913
0.0969485
0.239181
0.871433
3.33326
8.29997
5.85638
0.0479921
0.00359235
0.0482533
0.150388
0.404394
1.10188
2.94018
4.75273
3.86478
0.0513261
0.00167122
0.0637199
0.21322
0.547568
1.23351
2.62377
2.85207
2.58998
0.0525363
0.00382684
0.0828083
0.282552
0.675963
1.33503
2.37929
1.87684
1.87626
0.0530045
0.00811834
0.107267
0.352627
0.807089
1.43863
2.01023
1.03998
1.16439
16.4688
1057.47
1374.93
1646.11
1800.56
1810.52
1560.15
1174.21
52.1337
0.664795
8.31894
5.71294
6.36758
7.29414
9.43672
10.5567
5.53772
23.738
0.118442
0.944126
1.51666
1.33341
0.487299
0.537761
6.57146
23.6326
15.0943
0.0446586
0.0174603
0.0434374
0.0870134
0.0757415
0.738839
5.33755
16.4398
10.253
0.053369
0.0132363
0.0638055
0.108119
0.296559
1.14217
4.37969
9.32147
6.70206
0.0582551
0.00451489
0.0644802
0.178127
0.486197
1.36771
3.70687
5.20276
4.40703
0.0610116
0.0058002
0.086406
0.255307
0.639761
1.47675
3.19965
3.05895
2.94077
0.0628143
0.0110995
0.109833
0.332765
0.775056
1.55934
2.82131
1.99513
2.12019
0.0630635
0.0181208
0.138429
0.411236
0.911126
1.63846
2.31326
1.07973
1.30957
16.9537
1066.92
1393.94
1677.41
1841.32
1854.41
1597.19
1196.11
53.304
0.679491
8.43685
5.57348
6.32439
7.47658
9.95948
11.281
5.45892
24.2076
0.127247
1.03836
1.61121
1.35234
0.460158
0.618552
7.28144
24.5083
15.4762
0.0483057
0.017918
0.0491365
0.0929086
0.0833501
0.840983
5.89709
16.8715
10.5795
0.0563043
0.0144253
0.0665375
0.113534
0.321904
1.2548
4.77877
9.45898
6.93233
0.0616931
0.00561714
0.0714382
0.189643
0.520143
1.47632
3.99258
5.21249
4.55696
0.0643437
0.00804628
0.0947856
0.271044
0.675859
1.57441
3.4058
3.02969
3.03787
0.0661507
0.0143984
0.119981
0.351932
0.812438
1.64673
2.97269
1.96199
2.18728
0.0663911
0.0222724
0.149716
0.432677
0.949718
1.71366
2.40977
1.04478
1.3494
16.5303
1058.13
1374.08
1646.06
1800.73
1810.73
1560.34
1174.34
52.1422
0.665557
8.31389
5.64468
6.35117
7.29453
9.44189
10.5607
5.53942
23.7455
0.114409
0.868185
1.49966
1.32487
0.486054
0.538121
6.57559
23.6401
15.1002
0.0426063
0.00572055
0.0408156
0.0867428
0.0759212
0.740284
5.34245
16.445
10.2575
0.0531236
0.0139473
0.0621248
0.108061
0.296698
1.14343
4.3835
9.32393
6.70524
0.0580007
0.00446337
0.0638932
0.177809
0.486204
1.36858
3.70953
5.20369
4.40925
0.0608386
0.0056431
0.0859062
0.254922
0.639693
1.47742
3.20151
3.05918
2.94233
0.0626301
0.0109192
0.109449
0.332281
0.774842
1.55981
2.82262
1.99512
2.12138
0.0628989
0.0178754
0.137889
0.410656
0.910997
1.63895
2.31409
1.07958
1.31035
15.0117
1020.5
1298.77
1533.06
1657.62
1657.44
1431.48
1095.32
47.6676
0.675389
8.32177
5.71661
6.28989
6.74241
8.09556
8.76628
5.30611
21.5498
0.0928714
0.687463
1.22332
1.24999
0.557158
0.350674
4.70354
20.0634
13.4452
0.0341776
0.0216319
0.0242438
0.0710468
0.0608401
0.492127
3.87214
14.322
8.99756
0.043796
0.0133936
0.0505843
0.0972127
0.239387
0.873884
3.33897
8.30562
5.86212
0.047835
0.0037167
0.0470431
0.149664
0.404313
1.10332
2.94423
4.75562
3.86873
0.0506518
0.00155904
0.0627332
0.212522
0.547445
1.23461
2.62675
2.85352
2.59274
0.0523797
0.00353233
0.0819629
0.281589
0.675579
1.33582
2.38152
1.87767
1.87836
0.0526682
0.00769402
0.106163
0.351467
0.806867
1.43954
2.01179
1.04035
1.16579
11.4257
903.817
1093.06
1251.94
1321.23
1304.19
1134.95
892.291
35.1051
0.673411
6.67053
4.43859
5.69169
6.07304
6.85997
7.44501
3.44003
15.0099
0.0578058
0.598666
0.97684
1.17826
0.657934
0.158669
2.37302
12.7436
9.31302
0.0190066
0.089707
0.0154259
0.0565964
0.047675
0.249722
2.21679
9.17327
6.25253
0.0269662
0.035166
0.0192045
0.0731706
0.177834
0.614187
2.20368
5.43533
4.14179
0.0305096
0.0171644
0.0193843
0.107263
0.313059
0.817017
2.07889
3.20376
2.79347
0.0338454
0.0066205
0.0289739
0.158899
0.426715
0.947847
1.93048
1.94329
1.90265
0.0349176
0.00176048
0.044109
0.212847
0.534064
1.04215
1.793
1.27346
1.39754
0.0354046
0.000475654
0.0607118
0.26733
0.651409
1.14632
1.53662
0.683295
0.872454
2.92346
9.10317
10.6751
13.0179
14.8056
15.3918
15.2866
9.32037
10.6058
0.418982
0.521893
0.924112
1.51201
2.58773
3.39609
3.49922
1.90625
3.99935
0.0157519
0.0553244
0.155895
0.301779
0.551848
0.795589
0.847213
0.908918
3.25953
0.00524716
0.0214544
0.0464267
0.0686478
0.137522
0.21414
0.286851
1.17024
2.50652
0.00788713
0.0269945
0.0505792
0.0690338
0.0925303
0.0972982
0.18826
1.11159
1.82808
0.0104168
0.0327211
0.0597932
0.0826831
0.0854973
0.054802
0.192039
0.973078
1.3282
0.0118772
0.0367808
0.0664627
0.0864338
0.0819421
0.0300196
0.210905
0.81087
0.946464
0.0126682
0.0380893
0.067747
0.0885236
0.0763989
0.0134455
0.229639
0.703033
0.718954
0.0129906
0.0386678
0.0682055
0.0874879
0.0707889
0.0216832
0.227188
0.526492
0.458396
)
;


// ************************************************************************* //
