/*--------------------------------*- C++ -*----------------------------------*\
  =========                 |
  \\      /  F ield         | OpenFOAM: The Open Source CFD Toolbox
   \\    /   O peration     | Website:  https://openfoam.org
    \\  /    A nd           | Version:  11
     \\/     M anipulation  |
\*---------------------------------------------------------------------------*/
FoamFile
{
    format      ascii;
    class       volVectorField;
    location    "500";
    object      U;
}
// * * * * * * * * * * * * * * * * * * * * * * * * * * * * * * * * * * * * * //

dimensions      [0 1 -1 0 0 0 0];

internalField   nonuniform List<vector> 
729
(
(1.09589 -2.79694 -0.544409)
(0.840136 -1.90403 -0.562425)
(1.46444 -1.28708 -0.559068)
(1.88496 -0.742515 -0.447089)
(2.19175 -0.422719 -0.312303)
(2.35491 -0.236062 -0.150232)
(2.48932 -0.135157 0.13128)
(1.69783 -0.0156557 0.444258)
(3.22766 1.24433 0.33308)
(-0.602793 0.3378 0.154935)
(0.0405977 0.84623 0.323786)
(0.205047 0.418478 0.168151)
(0.633401 0.321378 0.136159)
(0.951567 0.176179 0.09734)
(1.15602 0.0287873 0.0721936)
(1.1737 -0.144266 0.0731074)
(0.666348 -0.190398 0.0540337)
(0.346274 1.75581 0.044792)
(-0.197981 -0.0924901 -0.0904921)
(0.1168 -0.673154 0.0821488)
(0.217762 -0.77799 0.102293)
(0.409447 -0.705032 0.141143)
(0.566806 -0.544623 0.13919)
(0.63903 -0.333786 0.106952)
(0.584483 -0.0416399 0.0404616)
(0.209963 0.500397 -0.0821112)
(-0.233098 2.07113 -0.1919)
(0.0473261 -0.401748 0.0688701)
(0.144291 -0.865612 0.103644)
(0.212255 -0.964921 0.0774855)
(0.304251 -0.880726 0.0738018)
(0.374014 -0.658456 0.0770603)
(0.374391 -0.313997 0.0774671)
(0.301148 0.182419 0.0392028)
(-0.00782732 1.03897 -0.0855801)
(-0.310136 2.16705 -0.236668)
(0.061054 -0.609695 0.0435776)
(0.124957 -1.04081 0.0507637)
(0.172229 -1.11756 0.0433243)
(0.220881 -1.0118 0.0286624)
(0.249778 -0.737808 0.0214049)
(0.228136 -0.310355 0.0315166)
(0.14124 0.324568 0.0277807)
(-0.127921 1.35231 -0.0703465)
(-0.287867 2.11708 -0.209037)
(0.0490425 -0.736516 0.033933)
(0.0876891 -1.13136 0.0356323)
(0.112012 -1.19632 0.026689)
(0.133496 -1.06538 0.0117784)
(0.138551 -0.738903 -0.00384051)
(0.108803 -0.24937 -0.000514603)
(0.0135811 0.476866 0.00912779)
(-0.203736 1.53795 -0.0628211)
(-0.25326 2.00831 -0.176268)
(0.0289227 -0.832266 0.0202296)
(0.0477557 -1.18676 0.0193476)
(0.0570908 -1.23986 0.0128285)
(0.0625584 -1.08501 0.00171638)
(0.0552599 -0.708109 -0.0137798)
(0.0176551 -0.163677 -0.0171297)
(-0.082341 0.631785 -0.00602772)
(-0.245895 1.64544 -0.0587746)
(-0.220457 1.87561 -0.147272)
(0.0129639 -0.881216 0.0115099)
(0.0179599 -1.20888 0.0104376)
(0.0172454 -1.25313 0.00476672)
(0.0133012 -1.07625 -0.00332016)
(0.000378334 -0.657605 -0.0153562)
(-0.0475924 -0.0582799 -0.0261674)
(-0.151031 0.76488 -0.0201159)
(-0.267363 1.70544 -0.0592484)
(-0.191085 1.75121 -0.126406)
(0.00583045 -0.901139 0.00782223)
(0.00441161 -1.21593 0.00638904)
(-0.00072223 -1.25302 0.00202422)
(-0.00923905 -1.06099 -0.00430642)
(-0.0266347 -0.607934 -0.0142377)
(-0.0958497 0.0899606 -0.028758)
(-0.18684 0.917852 -0.0317207)
(-0.247238 1.70998 -0.0605474)
(-0.146071 1.5592 -0.100531)
(0.442757 -3.98214 -0.516418)
(0.834955 -2.765 -0.500203)
(1.33721 -1.62957 -0.465696)
(1.72065 -0.942391 -0.365122)
(1.98613 -0.555122 -0.232505)
(2.20306 -0.298972 -0.0543019)
(2.44653 -0.0346919 0.249429)
(2.23329 0.712118 0.562994)
(3.79694 2.52356 0.490487)
(0.0466556 0.884175 0.38997)
(0.172092 0.188148 0.22825)
(0.518912 -0.0888289 0.111632)
(0.896719 -0.155343 0.0564248)
(1.16697 -0.18424 0.0336237)
(1.30679 -0.201134 0.0422194)
(1.28971 -0.17921 0.0911208)
(0.834102 0.220672 0.124257)
(0.836472 2.67004 0.168937)
(-0.00300374 -0.889876 0.105499)
(0.218409 -1.21812 0.16796)
(0.371184 -1.04677 0.224631)
(0.575559 -0.795844 0.209113)
(0.736798 -0.549968 0.159104)
(0.783558 -0.290239 0.0977341)
(0.68216 0.0725629 0.0315954)
(0.278065 0.758222 -0.0603568)
(0.107614 2.7839 -0.12045)
(0.0837801 -0.821921 0.115967)
(0.156585 -1.15153 0.11511)
(0.229848 -1.08761 0.109964)
(0.33487 -0.869923 0.112283)
(0.422267 -0.568837 0.100641)
(0.433452 -0.195487 0.0706025)
(0.355172 0.315554 0.0203546)
(0.0641609 1.15098 -0.0606911)
(-0.0526854 2.8223 -0.17383)
(0.070291 -1.0069 0.0695121)
(0.142997 -1.25158 0.0779061)
(0.187907 -1.1509 0.0651182)
(0.232169 -0.926861 0.0509572)
(0.257322 -0.584901 0.0390582)
(0.236538 -0.136004 0.0334153)
(0.170927 0.4624 0.0153454)
(-0.0407323 1.35688 -0.0324514)
(-0.0809144 2.69252 -0.139222)
(0.0514269 -1.08236 0.0485047)
(0.0948327 -1.26891 0.0490732)
(0.116935 -1.16454 0.0372626)
(0.13732 -0.93453 0.0196474)
(0.140868 -0.567246 0.00101013)
(0.108279 -0.0753282 -0.00080376)
(0.0482133 0.57288 0.0017727)
(-0.112902 1.48505 -0.0177261)
(-0.0899799 2.50898 -0.106331)
(0.0293762 -1.14334 0.0274868)
(0.0525233 -1.27497 0.0267265)
(0.0599984 -1.16974 0.0175023)
(0.0654456 -0.930743 0.00256169)
(0.0563086 -0.544399 -0.0163374)
(0.0209982 -0.01764 -0.0213443)
(-0.0358283 0.665962 -0.0107502)
(-0.156824 1.56953 -0.0126223)
(-0.0963157 2.32796 -0.0834082)
(0.0137847 -1.17027 0.0148915)
(0.0219102 -1.26988 0.0131436)
(0.0211579 -1.16329 0.00625108)
(0.0164675 -0.914814 -0.00460231)
(0.000198667 -0.509955 -0.019714)
(-0.0373057 0.0412874 -0.0318202)
(-0.0951427 0.745893 -0.0220408)
(-0.182667 1.6238 -0.0141189)
(-0.0992159 2.17571 -0.06834)
(0.00682613 -1.18082 0.00943339)
(0.00798585 -1.26569 0.00719523)
(0.00335096 -1.15492 0.00158169)
(-0.0067659 -0.89716 -0.00636465)
(-0.0283663 -0.472621 -0.0164841)
(-0.0704747 0.107427 -0.0295575)
(-0.123569 0.817069 -0.026926)
(-0.17419 1.61506 -0.0197784)
(-0.0883603 1.94225 -0.0515434)
(0.427249 -4.018 -0.359345)
(0.878878 -2.89408 -0.363922)
(1.37631 -1.66617 -0.337433)
(1.74071 -0.958574 -0.267423)
(1.98355 -0.573619 -0.172845)
(2.2073 -0.325754 -0.0455194)
(2.44586 -0.0370802 0.15813)
(2.33034 0.913029 0.370022)
(3.73397 2.94611 0.410414)
(0.3196 0.753055 0.208109)
(0.325783 0.0406709 0.107504)
(0.6442 -0.187632 0.0364391)
(0.976996 -0.238598 0.00938577)
(1.20822 -0.245977 0.00556144)
(1.31622 -0.239928 0.0230343)
(1.25897 -0.178298 0.067702)
(0.788574 0.353225 0.119557)
(0.794773 2.97922 0.245313)
(0.0339451 -1.1755 0.130996)
(0.267626 -1.31152 0.169349)
(0.446339 -1.04576 0.162343)
(0.637739 -0.778392 0.132778)
(0.771554 -0.52911 0.0951925)
(0.788317 -0.254521 0.058039)
(0.649885 0.15025 0.0210663)
(0.204353 0.941002 -0.0151502)
(0.0582315 3.12237 0.0309725)
(0.082436 -0.944035 0.0976027)
(0.142535 -1.16682 0.0947439)
(0.226717 -1.02518 0.0927056)
(0.344985 -0.790392 0.0910713)
(0.430165 -0.495297 0.0748842)
(0.426599 -0.119748 0.0473355)
(0.327642 0.425293 0.00928089)
(0.00931016 1.36224 -0.0340623)
(-0.0947278 3.17354 -0.0423899)
(0.0665683 -1.11308 0.0587155)
(0.136281 -1.2471 0.0564378)
(0.181773 -1.08301 0.0453803)
(0.226968 -0.835049 0.0366491)
(0.248236 -0.487444 0.0299993)
(0.218878 -0.0374028 0.0216018)
(0.142712 0.579085 0.00190152)
(-0.0758913 1.54079 -0.0294792)
(-0.107611 3.00188 -0.0478723)
(0.0481688 -1.16236 0.0370812)
(0.0905384 -1.24877 0.0327205)
(0.111921 -1.09381 0.022211)
(0.132741 -0.841553 0.00919332)
(0.130497 -0.467968 -0.00202212)
(0.0888849 0.028541 -0.00482865)
(0.0213684 0.684729 -0.00978246)
(-0.13794 1.63749 -0.0291914)
(-0.106579 2.7653 -0.046187)
(0.0274155 -1.21439 0.0205386)
(0.0508623 -1.25494 0.0168715)
(0.0574418 -1.10197 0.00860548)
(0.0611301 -0.840279 -0.00314341)
(0.0470994 -0.445114 -0.0166755)
(0.00376464 0.0841345 -0.022081)
(-0.0577021 0.768226 -0.0210065)
(-0.175145 1.69924 -0.0313079)
(-0.107492 2.54744 -0.0451441)
(0.0127589 -1.23677 0.0108026)
(0.0213934 -1.24991 0.00803169)
(0.0198664 -1.09751 0.00181459)
(0.0132728 -0.825995 -0.00730051)
(-0.00778324 -0.415177 -0.0199859)
(-0.0504955 0.134241 -0.0300767)
(-0.109844 0.835741 -0.0299739)
(-0.194218 1.73657 -0.0345375)
(-0.106289 2.37352 -0.0435881)
(0.00630991 -1.24506 0.00694067)
(0.00797722 -1.24525 0.00444742)
(0.00279171 -1.08944 -0.000657445)
(-0.00932774 -0.808064 -0.00787243)
(-0.0346546 -0.381361 -0.0176837)
(-0.076733 0.18555 -0.0281708)
(-0.128737 0.888045 -0.0314712)
(-0.17839 1.71154 -0.0341712)
(-0.0918566 2.12274 -0.0373531)
(0.440822 -4.05906 -0.171828)
(0.911104 -2.92919 -0.171817)
(1.40965 -1.6622 -0.160583)
(1.76846 -0.94893 -0.129958)
(2.00384 -0.571031 -0.0845421)
(2.22993 -0.332197 -0.0211692)
(2.46275 -0.0361373 0.0759277)
(2.35826 0.97528 0.172655)
(3.66866 3.07324 0.2127)
(0.387108 0.666945 0.0806213)
(0.393971 0.0119518 0.0470988)
(0.70375 -0.192127 0.0126561)
(1.01615 -0.241242 -0.00161265)
(1.22749 -0.24851 -0.0018742)
(1.31663 -0.241567 0.00995268)
(1.23199 -0.171249 0.035627)
(0.744728 0.40183 0.0687762)
(0.724647 3.02741 0.159369)
(0.0458569 -1.23982 0.0817263)
(0.296316 -1.31079 0.0935477)
(0.492346 -1.03156 0.0827523)
(0.670708 -0.764909 0.0640978)
(0.782838 -0.514391 0.0448384)
(0.775056 -0.230069 0.0271779)
(0.606615 0.199351 0.0112284)
(0.130905 1.04888 0.00201561)
(-0.0183698 3.19713 0.0531976)
(0.081159 -0.99414 0.0490062)
(0.139202 -1.16987 0.0497826)
(0.234256 -1.00726 0.0526088)
(0.355266 -0.765026 0.0499705)
(0.429167 -0.466036 0.0391034)
(0.407404 -0.0768901 0.0228496)
(0.284802 0.502139 0.00303406)
(-0.0601176 1.51621 -0.013304)
(-0.165786 3.28389 0.0062993)
(0.0641029 -1.15248 0.0318725)
(0.132795 -1.24095 0.0303109)
(0.176842 -1.05408 0.0255729)
(0.219947 -0.792021 0.0218173)
(0.23515 -0.438581 0.0173938)
(0.194455 0.022169 0.0103099)
(0.101533 0.669664 -0.00176624)
(-0.131869 1.70154 -0.0145076)
(-0.165069 3.11434 -0.00365147)
(0.0460155 -1.19433 0.0193457)
(0.0871311 -1.23846 0.0171811)
(0.106905 -1.05986 0.0118905)
(0.124936 -0.791777 0.00503652)
(0.115454 -0.408333 -0.000826911)
(0.0641549 0.0987406 -0.00365027)
(-0.016884 0.78101 -0.00800463)
(-0.182683 1.78859 -0.0157943)
(-0.151671 2.86269 -0.00655408)
(0.0260031 -1.24192 0.0107337)
(0.0484597 -1.24212 0.00874188)
(0.0533064 -1.06549 0.00423996)
(0.0541248 -0.787091 -0.00245107)
(0.0342068 -0.380462 -0.00993432)
(-0.017592 0.159345 -0.0134635)
(-0.0902763 0.865597 -0.013978)
(-0.21104 1.83766 -0.0172658)
(-0.142964 2.63128 -0.00844069)
(0.011729 -1.26126 0.00551686)
(0.0199662 -1.2354 0.00398889)
(0.0169545 -1.05981 0.000448081)
(0.00775613 -0.771725 -0.0049655)
(-0.0182011 -0.349574 -0.0122305)
(-0.0675558 0.210193 -0.01793)
(-0.135292 0.930705 -0.0184742)
(-0.222058 1.86252 -0.0186383)
(-0.133771 2.4486 -0.00922292)
(0.0057897 -1.26807 0.00372896)
(0.00705139 -1.22977 0.00224228)
(0.000712506 -1.05096 -0.000763355)
(-0.0135916 -0.753232 -0.00513416)
(-0.0428404 -0.316241 -0.0109169)
(-0.088797 0.258359 -0.0166956)
(-0.145859 0.975789 -0.0185448)
(-0.198103 1.82142 -0.0173592)
(-0.11124 2.1864 -0.00808422)
(0.447487 -4.09886 0.00926708)
(0.92336 -2.94181 0.00305991)
(1.42176 -1.66031 0.00234583)
(1.77939 -0.944523 0.00170733)
(2.01295 -0.56884 0.00137413)
(2.23942 -0.332899 0.0011787)
(2.46934 -0.0343789 0.00104265)
(2.36588 0.992917 0.000809025)
(3.64795 3.10602 0.00022743)
(0.403206 0.646576 -0.00135035)
(0.413291 0.00473432 0.00201851)
(0.721646 -0.191446 0.00220608)
(1.0284 -0.23901 0.00160196)
(1.23377 -0.246676 0.00119969)
(1.31666 -0.240251 0.000960733)
(1.22287 -0.167996 0.000783166)
(0.729294 0.415423 0.000603421)
(0.701058 3.02741 0.000339871)
(0.0512991 -1.25167 -0.00462045)
(0.307817 -1.31124 0.00146241)
(0.507301 -1.02847 0.00174726)
(0.680817 -0.760443 0.000994811)
(0.78543 -0.50878 0.000694006)
(0.768902 -0.2211 0.000568538)
(0.589759 0.216323 0.00046805)
(0.103251 1.08504 0.000352627)
(-0.046762 3.19849 0.000191145)
(0.0814676 -1.01135 -0.00430084)
(0.139551 -1.17299 0.000400847)
(0.237806 -1.00454 0.000360925)
(0.358536 -0.758885 -4.42518e-05)
(0.427591 -0.457067 5.24573e-06)
(0.398659 -0.0619923 0.00011524)
(0.266798 0.529527 0.000181958)
(-0.0877685 1.56894 0.000189423)
(-0.193349 3.30056 0.00011524)
(0.0636814 -1.16333 -0.00172815)
(0.1316 -1.23822 -0.00107458)
(0.174749 -1.04549 -0.000532483)
(0.216743 -0.778765 -0.000464531)
(0.229285 -0.422687 -0.000343001)
(0.183822 0.0432184 -0.000184888)
(0.0837235 0.703279 -3.10733e-05)
(-0.155031 1.75938 6.3998e-05)
(-0.188187 3.13601 6.89124e-05)
(0.0451277 -1.20348 -0.000807533)
(0.0857607 -1.23464 -0.000432821)
(0.104739 -1.04894 -0.000364527)
(0.121281 -0.775221 -0.000422162)
(0.108767 -0.387751 -0.000413693)
(0.0534068 0.124268 -0.000316442)
(-0.0335751 0.817966 -0.000158547)
(-0.201966 1.84472 -3.07397e-05)
(-0.170362 2.88188 3.10527e-05)
(0.0254295 -1.24936 -0.000470929)
(0.0473873 -1.23713 -0.000321286)
(0.0514341 -1.0532 -0.000301337)
(0.0509863 -0.768762 -0.000340485)
(0.0284007 -0.357316 -0.000370623)
(-0.0270836 0.187528 -0.00033084)
(-0.104985 0.90404 -0.000213578)
(-0.227297 1.89021 -9.1585e-05)
(-0.15812 2.64728 1.79101e-07)
(0.0113109 -1.26764 -0.000381891)
(0.019281 -1.2297 -0.000290635)
(0.0156327 -1.04684 -0.00028005)
(0.00525288 -0.752732 -0.000295579)
(-0.0229083 -0.325527 -0.000310799)
(-0.0754239 0.239609 -0.000288878)
(-0.147502 0.969335 -0.000219315)
(-0.235539 1.91132 -0.00012183)
(-0.145975 2.46251 -1.99533e-05)
(0.00547417 -1.27392 3.57719e-05)
(0.00653888 -1.22372 -5.19993e-05)
(-0.000333852 -1.03767 -0.000113856)
(-0.0156403 -0.733942 -0.000163654)
(-0.0466296 -0.291975 -0.000200903)
(-0.0948034 0.287646 -0.000226704)
(-0.154993 1.01315 -0.000194377)
(-0.208675 1.86579 -0.000128798)
(-0.120418 2.19823 -3.11902e-05)
(0.434776 -4.06585 0.205525)
(0.909894 -2.93708 0.180314)
(1.40939 -1.6643 0.165815)
(1.76837 -0.949579 0.133345)
(2.00382 -0.571105 0.0871634)
(2.22999 -0.332139 0.0234165)
(2.46276 -0.0359554 -0.0739155)
(2.35827 0.975525 -0.171149)
(3.66867 3.07342 -0.212475)
(0.394739 0.663345 -0.0835177)
(0.393489 0.00537686 -0.0415409)
(0.704518 -0.193468 -0.00729183)
(1.01603 -0.241469 0.00498441)
(1.22729 -0.248383 0.00427069)
(1.31649 -0.241367 -0.0080649)
(1.23187 -0.170985 -0.0341102)
(0.744518 0.402258 -0.0676643)
(0.724626 3.02791 -0.158919)
(0.0491962 -1.23941 -0.0953279)
(0.29781 -1.316 -0.0943688)
(0.494257 -1.03359 -0.0800755)
(0.670906 -0.765022 -0.0621916)
(0.782656 -0.514168 -0.043403)
(0.774841 -0.229746 -0.026038)
(0.606402 0.19975 -0.0103146)
(0.13064 1.04945 -0.0013688)
(-0.0184853 3.1977 -0.0529714)
(0.0833337 -0.986316 -0.0572604)
(0.137965 -1.16927 -0.0529843)
(0.235803 -1.00732 -0.0531418)
(0.355822 -0.764687 -0.0502013)
(0.429084 -0.465751 -0.0390792)
(0.407266 -0.0765319 -0.022628)
(0.284622 0.5026 -0.00268296)
(-0.0603632 1.5169 0.0136504)
(-0.16593 3.28449 -0.00617379)
(0.0652791 -1.14817 -0.0347776)
(0.133717 -1.23903 -0.0319208)
(0.177276 -1.05382 -0.0265389)
(0.219997 -0.791456 -0.022734)
(0.235124 -0.438134 -0.0180772)
(0.19437 0.0226085 -0.0106885)
(0.101392 0.670184 0.00169719)
(-0.132064 1.70229 0.014615)
(-0.165206 3.11493 0.00370434)
(0.0459286 -1.19135 -0.0208193)
(0.0873975 -1.23706 -0.0181857)
(0.107129 -1.05905 -0.0126585)
(0.124969 -0.791195 -0.00585212)
(0.115473 -0.407866 2.9209e-05)
(0.0641061 0.0992151 0.00302996)
(-0.0169917 0.781576 0.00769257)
(-0.18283 1.78936 0.0157224)
(-0.151784 2.86326 0.00654616)
(0.0260974 -1.2399 -0.0116174)
(0.0486542 -1.24099 -0.00939827)
(0.0534688 -1.06479 -0.00483134)
(0.0542114 -0.786593 0.00180437)
(0.0342561 -0.380023 0.00923446)
(-0.0176036 0.159832 0.0128305)
(-0.0903518 0.866188 0.0135673)
(-0.21115 1.83842 0.0170808)
(-0.143052 2.63184 0.00838449)
(0.0118009 -1.25946 -0.00625656)
(0.0201171 -1.23431 -0.00456413)
(0.0171037 -1.05913 -0.000998073)
(0.00787392 -0.771264 0.00439755)
(-0.0181225 -0.349147 0.0116434)
(-0.0675397 0.210678 0.0173847)
(-0.135344 0.931301 0.0180595)
(-0.222146 1.86328 0.0183987)
(-0.133841 2.44915 0.00913723)
(0.00583576 -1.26647 -0.00365321)
(0.00713076 -1.22881 -0.00234852)
(0.00079316 -1.05036 0.000541417)
(-0.0135257 -0.752845 0.00482095)
(-0.0428014 -0.315891 0.0105379)
(-0.0887771 0.258851 0.0162688)
(-0.145901 0.976378 0.0181794)
(-0.198176 1.82216 0.0171068)
(-0.111293 2.18694 0.00798693)
(0.399429 -3.93552 0.412834)
(0.872556 -2.91581 0.377118)
(1.37463 -1.6699 0.342602)
(1.74081 -0.960395 0.270262)
(1.98379 -0.574 0.174889)
(2.20772 -0.325789 0.0473361)
(2.44607 -0.0366299 -0.156388)
(2.33045 0.913465 -0.368917)
(3.73408 2.94611 -0.410836)
(0.364247 0.784354 -0.21561)
(0.321072 0.0156938 -0.0946795)
(0.644444 -0.189257 -0.0286124)
(0.975309 -0.238743 -0.00587493)
(1.20741 -0.245416 -0.00340054)
(1.3159 -0.239393 -0.0213669)
(1.25879 -0.177692 -0.0663872)
(0.788247 0.354086 -0.118735)
(0.794987 2.98014 -0.245437)
(0.0623634 -1.17901 -0.157377)
(0.273497 -1.30856 -0.168668)
(0.449299 -1.04906 -0.159269)
(0.636642 -0.778498 -0.130862)
(0.770709 -0.528593 -0.0938282)
(0.787724 -0.253815 -0.0570137)
(0.64949 0.151078 -0.0202685)
(0.203948 0.94204 0.0156234)
(0.058258 3.12352 -0.0311275)
(0.0909882 -0.930485 -0.107871)
(0.146444 -1.16118 -0.0992406)
(0.229101 -1.02653 -0.0942868)
(0.345549 -0.790471 -0.0913908)
(0.429781 -0.495033 -0.0749733)
(0.426283 -0.119114 -0.0472246)
(0.327351 0.426149 -0.00900237)
(0.00895051 1.36345 0.0343001)
(-0.0947787 3.17469 0.0422534)
(0.0676906 -1.10263 -0.0613293)
(0.137346 -1.24173 -0.0575853)
(0.182927 -1.08176 -0.0462249)
(0.22718 -0.834145 -0.0374651)
(0.248224 -0.486842 -0.0306998)
(0.218762 -0.0366374 -0.0220178)
(0.142532 0.580008 -0.00199613)
(-0.0761607 1.54208 0.0295258)
(-0.107688 3.00299 0.0477193)
(0.048688 -1.15611 -0.0383654)
(0.0910583 -1.2454 -0.0335891)
(0.112424 -1.09221 -0.0228963)
(0.132881 -0.840583 -0.00986775)
(0.130629 -0.467227 0.00131849)
(0.0888733 0.0293601 0.00426135)
(0.0212658 0.685703 0.00949193)
(-0.138121 1.63879 0.0290991)
(-0.106646 2.76637 0.0460146)
(0.0276739 -1.20949 -0.0213206)
(0.0512749 -1.2523 -0.017503)
(0.0578347 -1.10054 -0.00912322)
(0.0613615 -0.839416 0.00260867)
(0.0472662 -0.444424 0.0161007)
(0.00382609 0.0849451 0.021548)
(-0.0577423 0.769216 0.0206535)
(-0.175261 1.70054 0.0311323)
(-0.107541 2.54851 0.0449635)
(0.0128209 -1.23224 -0.0114604)
(0.0217213 -1.24746 -0.00857215)
(0.0202118 -1.09614 -0.00232068)
(0.0135477 -0.825203 0.00681099)
(-0.00757527 -0.41451 0.0195028)
(-0.0503892 0.135027 0.0296319)
(-0.109847 0.836716 0.0296353)
(-0.1943 1.73785 0.0343268)
(-0.106328 2.37459 0.0434107)
(0.0064742 -1.24091 -0.00691679)
(0.00816003 -1.24304 -0.00455842)
(0.00298081 -1.08822 0.000454828)
(-0.0091686 -0.807409 0.00760162)
(-0.034542 -0.380856 0.0173682)
(-0.0766287 0.186341 0.0278184)
(-0.12874 0.888991 0.0311764)
(-0.178461 1.71278 0.0339501)
(-0.0918853 2.1238 0.0371984)
(0.284877 -3.58665 0.519021)
(0.823469 -2.83186 0.522346)
(1.33345 -1.63614 0.46866)
(1.72314 -0.948569 0.367408)
(1.98811 -0.55716 0.23412)
(2.20503 -0.300087 0.0556433)
(2.44757 -0.0335731 -0.248055)
(2.23382 0.712795 -0.562531)
(3.79694 2.52244 -0.490798)
(0.172499 1.10189 -0.418967)
(0.135931 0.102731 -0.216304)
(0.511777 -0.0845927 -0.104814)
(0.890701 -0.155348 -0.0545022)
(1.16495 -0.182608 -0.0324882)
(1.3064 -0.199992 -0.0411696)
(1.28975 -0.178012 -0.0901793)
(0.833856 0.222098 -0.123992)
(0.837506 2.67082 -0.169632)
(0.0929297 -0.917309 -0.125194)
(0.230574 -1.23133 -0.189586)
(0.376324 -1.05654 -0.219652)
(0.572042 -0.796953 -0.208443)
(0.734958 -0.549129 -0.158081)
(0.782538 -0.289035 -0.0970132)
(0.68175 0.0739839 -0.0310159)
(0.277767 0.759639 0.0605068)
(0.108242 2.78485 0.119814)
(0.106973 -0.788268 -0.127093)
(0.163618 -1.15167 -0.12183)
(0.234817 -1.09259 -0.111153)
(0.335305 -0.871799 -0.113062)
(0.421938 -0.568904 -0.100983)
(0.433066 -0.194702 -0.0706503)
(0.354979 0.316732 -0.020151)
(0.0639643 1.15239 0.0607754)
(-0.0521848 2.82331 0.173323)
(0.07378 -0.986413 -0.071718)
(0.144267 -1.24551 -0.079607)
(0.189651 -1.14948 -0.065885)
(0.232871 -0.926461 -0.0516581)
(0.257522 -0.584493 -0.0396927)
(0.236536 -0.135147 -0.0338199)
(0.170911 0.463538 -0.015426)
(-0.0408336 1.35828 0.032451)
(-0.0805498 2.69364 0.138822)
(0.0526589 -1.0709 -0.0494779)
(0.0956366 -1.2633 -0.049813)
(0.117617 -1.16245 -0.0378953)
(0.13776 -0.933634 -0.0202412)
(0.14118 -0.566624 -0.00157782)
(0.108442 -0.0744345 0.000356862)
(0.048307 0.573981 -0.00198774)
(-0.112918 1.48643 0.0176553)
(-0.0896991 2.51022 0.10599)
(0.0298563 -1.13376 -0.0281271)
(0.0533343 -1.27038 -0.0274036)
(0.0607406 -1.16786 -0.0180225)
(0.0658977 -0.929869 -0.0030087)
(0.0566655 -0.543813 0.0159129)
(0.0212525 -0.0168002 0.0209726)
(-0.0356608 0.666994 0.0105185)
(-0.156785 1.57092 0.0125094)
(-0.0960949 2.32931 0.0831211)
(0.0140961 -1.16135 -0.0153747)
(0.0224472 -1.26548 -0.0135901)
(0.0217875 -1.16124 -0.0066796)
(0.016967 -0.91399 0.00422288)
(0.000614169 -0.509398 0.0193775)
(-0.0370021 0.042071 0.0315253)
(-0.0949445 0.746855 0.0218417)
(-0.182614 1.62519 0.0139888)
(-0.0990515 2.17717 0.0680996)
(0.00701558 -1.17241 -0.0094613)
(0.00828692 -1.26164 -0.00728883)
(0.00366878 -1.15312 -0.00173671)
(-0.00648235 -0.896517 0.0061605)
(-0.0281349 -0.472363 0.0162595)
(-0.0701821 0.108203 0.0293066)
(-0.12341 0.817983 0.0267512)
(-0.17416 1.61644 0.0196283)
(-0.0882413 1.94373 0.0513694)
(0.0537624 -2.02992 0.441021)
(1.0345 -2.1454 0.596082)
(1.41511 -1.30763 0.55424)
(1.91617 -0.771701 0.450965)
(2.19651 -0.432404 0.31332)
(2.36372 -0.24403 0.151004)
(2.49367 -0.131781 -0.129181)
(1.69878 -0.0173565 -0.445355)
(3.22744 1.24378 -0.336479)
(-0.0738541 1.04 -0.379056)
(-0.297181 0.309198 -0.107775)
(0.251544 0.493709 -0.167397)
(0.598072 0.314714 -0.126605)
(0.950688 0.185661 -0.0940685)
(1.15543 0.03273 -0.0702074)
(1.17579 -0.140733 -0.0721548)
(0.666931 -0.18829 -0.0541388)
(0.351479 1.75495 -0.0451913)
(0.110927 -0.221201 -0.0416877)
(0.0975526 -0.69927 -0.0220683)
(0.254189 -0.808313 -0.107347)
(0.399857 -0.704709 -0.138017)
(0.564549 -0.543531 -0.138818)
(0.637016 -0.330756 -0.106346)
(0.584219 -0.03827 -0.0399232)
(0.210022 0.501837 0.0821999)
(-0.229892 2.0716 0.191611)
(0.0951943 -0.348876 -0.0940474)
(0.147978 -0.868124 -0.0835245)
(0.226619 -0.973655 -0.0798416)
(0.305198 -0.884709 -0.073221)
(0.374229 -0.659938 -0.0772916)
(0.373939 -0.313005 -0.0776382)
(0.301358 0.184297 -0.0390536)
(-0.00752068 1.04008 0.0856327)
(-0.307722 2.16796 0.236691)
(0.06691 -0.578564 -0.0472167)
(0.126618 -1.02532 -0.048972)
(0.176666 -1.11446 -0.0450175)
(0.222328 -1.0113 -0.0292152)
(0.250623 -0.737913 -0.0217171)
(0.228464 -0.309452 -0.0318549)
(0.141752 0.325857 -0.027832)
(-0.127505 1.35331 0.0703498)
(-0.286235 2.11846 0.209151)
(0.0504904 -0.718828 -0.035011)
(0.0887721 -1.12031 -0.0355508)
(0.113811 -1.19245 -0.0267682)
(0.134556 -1.06422 -0.0122327)
(0.139337 -0.738678 0.00351488)
(0.109409 -0.248597 0.000230959)
(0.0142329 0.477602 -0.00925466)
(-0.203337 1.53899 0.06278)
(-0.252163 2.01001 0.176403)
(0.0296518 -0.817636 -0.020769)
(0.0487515 -1.17823 -0.0198203)
(0.0582099 -1.2362 -0.0126149)
(0.0634131 -1.08423 -0.00194426)
(0.0559876 -0.708186 0.0135553)
(0.0184034 -0.163002 0.0169652)
(-0.0816519 0.632211 0.00590351)
(-0.245544 1.64663 0.0587122)
(-0.21974 1.87756 0.147408)
(0.0134 -0.867373 -0.0118199)
(0.0187539 -1.20126 -0.0106694)
(0.018183 -1.24992 -0.00548979)
(0.0141074 -1.07582 0.00302305)
(0.00120593 -0.657707 0.0151555)
(-0.0467704 -0.0574049 0.0260189)
(-0.150369 0.765194 0.0200181)
(-0.267099 1.7068 0.0591871)
(-0.190645 1.75336 0.126537)
(0.0060633 -0.888033 -0.00790389)
(0.00485371 -1.20886 -0.00646822)
(-0.000200008 -1.25006 -0.00208711)
(-0.0088035 -1.06094 0.00418754)
(-0.0262229 -0.60885 0.0140745)
(-0.0950415 0.09057 0.0285916)
(-0.186339 0.918191 0.031634)
(-0.247117 1.71157 0.0604998)
(-0.145799 1.56142 0.10069)
)
;

boundaryField
{
    inlet
    {
        type            fixedValue;
        value           uniform (10 0 0);
    }
    outlet
    {
        type            zeroGradient;
    }
    lowerWall
    {
        type            noSlip;
    }
    upperWall
    {
        type            noSlip;
    }
}


// ************************************************************************* //
