/*--------------------------------*- C++ -*----------------------------------*\
| =========                 |                                                 |
| \\      /  F ield         | OpenFOAM: The Open Source CFD Toolbox           |
|  \\    /   O peration     | Version:  2306                                  |
|   \\  /    A nd           | Website:  www.openfoam.com                      |
|    \\/     M anipulation  |                                                 |
\*---------------------------------------------------------------------------*/
FoamFile
{
    version     2.0;
    format      ascii;
    arch        "LSB;label=32;scalar=64";
    class       volScalarField;
    location    "3.4";
    object      p;
}
// * * * * * * * * * * * * * * * * * * * * * * * * * * * * * * * * * * * * * //

dimensions      [0 2 -2 0 0 0 0];

internalField   nonuniform List<scalar> 
288632
(
58.9325
58.9241
58.9349
58.9575
58.989
59.0274
59.0764
59.1096
59.1906
59.1891
59.2916
59.2894
59.3289
-1.45638
-1.35632
-1.4251
-1.18805
-1.15598
-0.986192
-0.849277
-0.700257
-0.547062
-0.391612
-0.235371
-0.0786077
58.9257
58.9225
58.9342
58.9569
58.9885
59.027
59.0761
59.1096
59.1905
59.1897
59.2914
59.2889
59.3293
-1.45699
-1.35718
-1.42666
-1.18923
-1.15717
-0.98726
-0.850163
-0.700991
-0.547634
-0.39202
-0.235616
-0.0786901
58.9233
58.9208
58.9329
58.9556
58.9874
59.0259
59.0751
59.1091
59.19
59.1907
59.2913
59.2894
59.3306
-1.45942
-1.36019
-1.42972
-1.19188
-1.15965
-0.989401
-0.85198
-0.702483
-0.548795
-0.392848
-0.236113
-0.0788557
58.9196
58.9183
58.9308
58.9537
58.9856
59.0243
59.0736
59.1084
59.1892
59.1921
59.2907
59.2907
59.3323
-1.46366
-1.36456
-1.43424
-1.19582
-1.16333
-0.992579
-0.854694
-0.704709
-0.550527
-0.394084
-0.236854
-0.0791026
58.9162
58.9154
58.9283
58.9513
58.9832
59.0221
59.0715
59.1072
59.188
59.1936
59.2904
59.2924
59.3344
-1.46955
-1.37055
-1.44018
-1.20107
-1.16819
-0.996764
-0.858269
-0.70764
-0.552807
-0.395711
-0.237829
-0.0794275
58.9127
58.9123
58.9252
58.9483
58.9803
59.0193
59.069
59.1058
59.1865
59.1947
59.2907
59.2946
59.3369
-1.47696
-1.37789
-1.44743
-1.20749
-1.17413
-1.00189
-0.862652
-0.711236
-0.555604
-0.397708
-0.239026
-0.0798262
58.9091
58.9088
58.9218
58.9449
58.9769
59.0161
59.066
59.104
59.1849
59.1959
59.2912
59.2972
59.3399
-1.48576
-1.38656
-1.4559
-1.21504
-1.18109
-1.00789
-0.867784
-0.715446
-0.55888
-0.400047
-0.240429
-0.0802932
58.9053
58.9051
58.9181
58.9412
58.9731
59.0124
59.0625
59.1019
59.183
59.1973
59.2921
59.3005
59.3437
-1.49582
-1.39635
-1.46546
-1.22357
-1.18895
-1.01468
-0.87359
-0.720211
-0.562589
-0.402695
-0.242017
-0.0808222
58.9014
58.9012
58.9141
58.9371
58.9689
59.0084
59.0587
59.0996
59.181
59.1989
59.2935
59.3044
59.3482
-1.50696
-1.40715
-1.47595
-1.23297
-1.1976
-1.02216
-0.879987
-0.725463
-0.566678
-0.405614
-0.243768
-0.0814057
58.8974
58.8971
58.9099
58.9327
58.9645
59.004
59.0547
59.0972
59.179
59.2007
59.2956
59.3092
59.3538
-1.519
-1.41878
-1.48723
-1.24309
-1.20692
-1.03021
-0.886881
-0.731125
-0.571087
-0.408764
-0.245657
-0.0820351
58.8933
58.893
58.9056
58.9282
58.9598
58.9994
59.0504
59.0946
59.177
59.2027
59.2984
59.3149
59.3605
-1.53176
-1.43104
-1.49912
-1.25378
-1.21675
-1.03873
-0.894168
-0.737112
-0.575751
-0.412096
-0.247657
-0.0827013
58.8892
58.8888
58.9012
58.9235
58.955
58.9947
59.046
59.0919
59.1751
59.2052
59.302
59.3219
59.3686
-1.54502
-1.44376
-1.51143
-1.26486
-1.22694
-1.04756
-0.901737
-0.743333
-0.580599
-0.41556
-0.249736
-0.0833943
58.8852
58.8846
58.8968
58.9189
58.9501
58.9898
59.0415
59.0893
59.1733
59.2082
59.3066
59.3303
59.3784
-1.55857
-1.45671
-1.52397
-1.27617
-1.23735
-1.05659
-0.90947
-0.749693
-0.585556
-0.419104
-0.251863
-0.0841034
58.8814
58.8806
58.8924
58.9142
58.9452
58.985
59.0371
59.0868
59.1718
59.2118
59.3123
59.34
59.3898
-1.57221
-1.4697
-1.53654
-1.28752
-1.2478
-1.06565
-0.917247
-0.756091
-0.590546
-0.422672
-0.254005
-0.0848175
58.8777
58.8767
58.8882
58.9097
58.9405
58.9803
59.0328
59.0844
59.1706
59.2158
59.3192
59.3512
59.403
-1.5857
-1.48252
-1.54893
-1.29874
-1.25812
-1.07462
-0.924941
-0.762424
-0.595487
-0.426206
-0.256127
-0.0855252
58.8742
58.8731
58.8843
58.9054
58.9359
58.9757
59.0287
59.0823
59.1698
59.2204
59.3273
59.3637
59.4179
-1.59884
-1.49496
-1.56096
-1.30963
-1.26816
-1.08334
-0.93243
-0.768591
-0.600299
-0.429648
-0.258194
-0.086215
58.8711
58.8697
58.8806
58.9014
58.9316
58.9715
59.0248
59.0805
59.1693
59.2254
59.3364
59.3774
59.4343
-1.61142
-1.50683
-1.57241
-1.32003
-1.27773
-1.09168
-0.939588
-0.774489
-0.604904
-0.432943
-0.260174
-0.0868753
58.8683
58.8667
58.8772
58.8977
58.9277
58.9675
59.0213
59.079
59.1691
59.2308
59.3463
59.3919
59.4518
-1.62323
-1.51793
-1.58311
-1.32977
-1.2867
-1.09949
-0.946297
-0.78002
-0.609223
-0.436035
-0.262031
-0.0874951
58.8661
58.8642
58.8743
58.8944
58.9241
58.964
59.0182
59.0777
59.1693
59.2362
59.3566
59.4069
59.47
-1.63409
-1.52811
-1.59289
-1.33869
-1.2949
-1.10664
-0.952445
-0.78509
-0.613184
-0.438871
-0.263735
-0.0880638
58.8643
58.8621
58.8717
58.8915
58.9209
58.9608
59.0154
59.0768
59.1697
59.2416
59.3669
59.4216
59.4881
-1.64384
-1.53717
-1.60157
-1.34663
-1.30221
-1.11301
-0.957927
-0.789612
-0.616718
-0.441401
-0.265256
-0.0885714
58.8633
58.8605
58.8697
58.889
58.9183
58.9582
59.0132
59.0761
59.1703
59.2466
59.3766
59.4355
59.5054
-1.65232
-1.54503
-1.60903
-1.35349
-1.3085
-1.11851
-0.96265
-0.793509
-0.619764
-0.443583
-0.266568
-0.0890091
58.8628
58.8593
58.868
58.8871
58.9161
58.9561
59.0113
59.0756
59.171
59.2509
59.3853
59.448
59.5208
-1.65942
-1.5515
-1.61513
-1.35913
-1.31365
-1.12302
-0.966532
-0.796714
-0.622269
-0.445378
-0.267646
-0.089369
58.8641
58.8589
58.8669
58.8856
58.9145
58.9545
59.01
59.0753
59.1716
59.2545
59.3923
59.4583
59.5338
-1.66503
-1.55661
-1.61979
-1.36349
-1.31761
-1.12647
-0.96951
-0.799171
-0.62419
-0.446753
-0.268473
-0.0896446
58.8642
58.8584
58.866
58.8847
58.9135
58.9534
59.0091
59.0752
59.1721
59.2569
59.3971
59.4658
59.5433
-1.66906
-1.55999
-1.62292
-1.36644
-1.32029
-1.1288
-0.971528
-0.800836
-0.625491
-0.447685
-0.269033
-0.089831
58.8698
58.859
58.8658
58.8843
58.913
58.953
59.0087
59.0752
59.1724
59.2585
59.4002
59.4695
59.5493
-1.67142
-1.56233
-1.62446
-1.36805
-1.32168
-1.12997
-0.972564
-0.801686
-0.626153
-0.448159
-0.269317
-0.0899245
58.9244
58.921
58.9327
58.9553
58.9869
59.0252
59.0741
59.1074
59.1882
59.1872
59.2887
59.2869
59.3276
-1.46091
-1.36116
-1.4299
-1.19184
-1.15875
-0.988446
-0.850623
-0.701055
-0.547459
-0.391755
-0.235388
-0.0785898
58.9175
58.9192
58.9322
58.9547
58.9864
59.0248
59.0738
59.1074
59.188
59.189
59.2853
59.2865
59.3283
-1.46145
-1.36206
-1.4315
-1.19304
-1.15997
-0.989534
-0.851523
-0.7018
-0.548039
-0.392169
-0.235637
-0.0786734
58.9154
58.9175
58.9308
58.9535
58.9852
59.0237
59.0728
59.1069
59.1875
59.1901
59.2847
59.2869
59.3297
-1.46392
-1.36512
-1.43461
-1.19574
-1.16249
-0.991707
-0.853367
-0.703313
-0.549216
-0.393008
-0.236139
-0.078841
58.9118
58.9149
58.9286
58.9515
58.9833
59.022
59.0712
59.1061
59.1865
59.1913
59.284
59.288
59.3314
-1.46823
-1.36957
-1.43922
-1.19975
-1.16623
-0.994936
-0.85612
-0.70557
-0.550971
-0.39426
-0.23689
-0.079091
58.9084
58.9122
58.926
58.9491
58.9809
59.0197
59.0691
59.1049
59.1852
59.1924
59.2837
59.2896
59.3335
-1.4742
-1.37568
-1.44527
-1.20508
-1.17117
-0.999185
-0.859747
-0.708542
-0.553282
-0.395908
-0.237878
-0.0794201
58.9048
58.9091
58.923
58.9461
58.978
59.0169
59.0665
59.1033
59.1836
59.1934
59.2838
59.2916
59.3359
-1.48172
-1.38315
-1.45264
-1.21162
-1.17721
-1.00439
-0.864195
-0.712189
-0.556118
-0.397932
-0.239091
-0.079824
58.9011
58.9057
58.9196
58.9427
58.9745
59.0136
59.0633
59.1014
59.1818
59.1945
59.2841
59.2941
59.3389
-1.49065
-1.39197
-1.46127
-1.21929
-1.18428
-1.01049
-0.869403
-0.71646
-0.55944
-0.400303
-0.240512
-0.0802974
58.8973
58.9019
58.9158
58.9388
58.9707
59.0098
59.0598
59.0991
59.1797
59.1955
59.2847
59.2971
59.3425
-1.50085
-1.40194
-1.47099
-1.22797
-1.19227
-1.01738
-0.875298
-0.721295
-0.563202
-0.402987
-0.242122
-0.0808336
58.8934
58.898
58.9118
58.9347
58.9664
59.0057
59.0558
59.0966
59.1775
59.1967
59.2858
59.3008
59.3469
-1.51215
-1.41294
-1.48168
-1.23754
-1.20106
-1.02498
-0.881794
-0.726625
-0.56735
-0.405949
-0.243898
-0.0814252
58.8894
58.8939
58.9075
58.9303
58.9619
59.0012
59.0516
59.0939
59.1751
59.1979
59.2874
59.3053
59.3522
-1.52436
-1.42478
-1.49317
-1.24783
-1.21053
-1.03317
-0.888795
-0.732373
-0.571824
-0.409144
-0.245815
-0.0820636
58.8853
58.8897
58.9032
58.9257
58.9571
58.9965
59.0471
59.091
59.1728
59.1995
59.2895
59.3108
59.3586
-1.5373
-1.43727
-1.50528
-1.25871
-1.22053
-1.04182
-0.896198
-0.738452
-0.576558
-0.412525
-0.247843
-0.0827396
58.8812
58.8855
58.8987
58.921
58.9522
58.9916
59.0425
59.088
59.1704
59.2014
59.2924
59.3174
59.3664
-1.55075
-1.45022
-1.51781
-1.26999
-1.23091
-1.05081
-0.90389
-0.744772
-0.581481
-0.416043
-0.249954
-0.083443
58.8772
58.8814
58.8943
58.9162
58.9472
58.9865
59.0377
59.085
59.1682
59.2036
59.2962
59.3253
59.3757
-1.56449
-1.46341
-1.53058
-1.2815
-1.24149
-1.05998
-0.911752
-0.751234
-0.586517
-0.419641
-0.252114
-0.084163
58.8733
58.8773
58.8899
58.9115
58.9423
58.9815
59.033
59.082
59.1662
59.2063
59.301
59.3344
59.3866
-1.57832
-1.47663
-1.54339
-1.29305
-1.25213
-1.06921
-0.919659
-0.757737
-0.591586
-0.423265
-0.254289
-0.0848883
58.8696
58.8734
58.8857
58.907
58.9374
58.9766
59.0284
59.0792
59.1644
59.2095
59.3069
59.3448
59.3992
-1.592
-1.48969
-1.55601
-1.30447
-1.26264
-1.07833
-0.927485
-0.764177
-0.596608
-0.426856
-0.256445
-0.0856073
58.8661
58.8697
58.8817
58.9026
58.9327
58.9719
59.024
59.0767
59.163
59.2131
59.3139
59.3566
59.4135
-1.60532
-1.50235
-1.56826
-1.31556
-1.27285
-1.08721
-0.935102
-0.770448
-0.601501
-0.430355
-0.258547
-0.0863083
58.863
58.8664
58.878
58.8985
58.9283
58.9675
59.0199
59.0744
59.1619
59.2171
59.3219
59.3695
59.4293
-1.61807
-1.51443
-1.57993
-1.32615
-1.2826
-1.09569
-0.942386
-0.776447
-0.606184
-0.433705
-0.260559
-0.0869796
58.8602
58.8634
58.8746
58.8947
58.9242
58.9633
59.0161
59.0724
59.1612
59.2214
59.3307
59.3832
59.4462
-1.63004
-1.52573
-1.59083
-1.33607
-1.29173
-1.10364
-0.949214
-0.782074
-0.610577
-0.436849
-0.262448
-0.0876098
58.8579
58.8608
58.8716
58.8913
58.9205
58.9596
59.0127
59.0707
59.1608
59.2259
59.3399
59.3974
59.4639
-1.64105
-1.53609
-1.60078
-1.34515
-1.30009
-1.11092
-0.955472
-0.787233
-0.614606
-0.439734
-0.264181
-0.0881882
58.8562
58.8586
58.869
58.8884
58.9173
58.9563
59.0097
59.0693
59.1607
59.2303
59.3492
59.4115
59.4815
-1.65093
-1.54531
-1.60962
-1.35324
-1.30752
-1.11741
-0.961053
-0.791836
-0.618202
-0.442308
-0.265728
-0.0887046
58.8551
58.857
58.8669
58.8859
58.9145
58.9535
59.0072
59.0683
59.1608
59.2344
59.3579
59.4248
59.4982
-1.65952
-1.5533
-1.61722
-1.36022
-1.31393
-1.12301
-0.965862
-0.795803
-0.621303
-0.444528
-0.267062
-0.08915
58.8546
58.8559
58.8652
58.8839
58.9123
58.9513
59.0052
59.0675
59.1611
59.238
59.3657
59.4366
59.5133
-1.66671
-1.55988
-1.62343
-1.36596
-1.31918
-1.1276
-0.969814
-0.799066
-0.623853
-0.446355
-0.26816
-0.0895163
58.8559
58.8554
58.8641
58.8824
58.9107
58.9496
59.0037
59.067
59.1614
59.2409
59.372
59.4464
59.5259
-1.67239
-1.56508
-1.62817
-1.37039
-1.32321
-1.13112
-0.972846
-0.801567
-0.625808
-0.447755
-0.269001
-0.0897968
58.8559
58.8549
58.8632
58.8815
58.9096
58.9485
59.0027
59.0666
59.1616
59.243
59.3763
59.4535
59.5351
-1.67647
-1.56851
-1.63136
-1.3734
-1.32594
-1.13349
-0.974901
-0.803262
-0.627132
-0.448703
-0.269571
-0.0899866
58.8615
58.8556
58.863
58.8811
58.9091
58.948
59.0023
59.0665
59.1619
59.2441
59.3797
59.4558
59.5405
-1.67886
-1.57088
-1.63292
-1.37504
-1.32735
-1.13468
-0.975955
-0.804125
-0.627805
-0.449184
-0.269859
-0.0900816
58.9191
58.9164
58.9283
58.9509
58.9823
59.0205
59.0693
59.1027
59.1831
59.1832
59.2834
59.2826
59.3244
-1.47121
-1.37187
-1.4392
-1.19926
-1.16399
-0.992554
-0.853003
-0.702364
-0.548013
-0.391856
-0.235296
-0.0785023
58.9126
58.9145
58.9277
58.9503
58.9818
59.0201
59.0689
59.1027
59.1829
59.1851
59.2794
59.2821
59.3252
-1.47176
-1.37281
-1.44085
-1.20052
-1.16525
-0.993674
-0.853929
-0.70313
-0.548609
-0.39228
-0.23555
-0.0785877
58.9102
58.9128
58.9263
58.949
58.9806
59.0189
59.0679
59.1021
59.1822
59.1861
59.279
59.2825
59.3266
-1.47433
-1.37599
-1.44407
-1.2033
-1.16784
-0.995912
-0.855826
-0.704683
-0.549816
-0.39314
-0.236065
-0.0787594
58.9064
58.9103
58.9242
58.947
58.9787
59.0172
59.0662
59.1011
59.1811
59.187
59.2782
59.2834
59.3283
-1.47879
-1.38061
-1.44884
-1.20745
-1.1717
-0.999237
-0.858657
-0.707002
-0.551617
-0.394424
-0.236835
-0.0790157
58.9029
58.9076
58.9216
58.9445
58.9762
59.0148
59.0639
59.0997
59.1796
59.1878
59.2776
59.2847
59.3302
-1.48497
-1.38694
-1.4551
-1.21296
-1.1768
-1.00362
-0.862388
-0.710057
-0.55399
-0.396116
-0.237848
-0.0793531
58.8993
58.9044
58.9185
58.9415
58.9732
59.0119
59.0611
59.0979
59.1777
59.1885
59.2772
59.2864
59.3324
-1.49273
-1.39468
-1.46274
-1.21972
-1.18303
-1.00898
-0.866966
-0.713806
-0.556903
-0.398193
-0.239093
-0.0797675
58.8956
58.9009
58.915
58.938
58.9696
59.0084
59.0577
59.0957
59.1755
59.1891
59.2769
59.2883
59.3349
-1.50196
-1.40383
-1.47168
-1.22765
-1.19033
-1.01527
-0.872329
-0.718198
-0.560317
-0.400628
-0.240552
-0.0802533
58.8918
58.8971
58.9112
58.9341
58.9656
59.0044
59.0539
59.093
59.1729
59.1896
59.2767
59.2906
59.338
-1.5125
-1.41417
-1.48175
-1.23663
-1.19858
-1.02238
-0.878401
-0.723174
-0.564185
-0.403387
-0.242206
-0.080804
58.8878
58.8932
58.9071
58.9298
58.9613
59.0001
59.0496
59.0901
59.1701
59.1899
59.2768
59.2935
59.3416
-1.52417
-1.42558
-1.49283
-1.24652
-1.20767
-1.03022
-0.885095
-0.728661
-0.568452
-0.406432
-0.244031
-0.081412
58.8838
58.889
58.9028
58.9253
58.9565
58.9953
59.045
59.0868
59.1671
59.1903
59.2772
59.2969
59.3459
-1.53679
-1.43785
-1.50473
-1.25718
-1.21746
-1.03867
-0.892316
-0.734583
-0.573058
-0.409719
-0.246002
-0.0820685
58.8797
58.8848
58.8984
58.9206
58.9516
58.9903
59.0401
59.0833
59.1639
59.1908
59.2779
59.3011
59.3511
-1.55014
-1.45081
-1.51728
-1.26843
-1.2278
-1.04761
-0.899954
-0.74085
-0.577934
-0.4132
-0.24809
-0.0827641
58.8756
58.8805
58.8939
58.9158
58.9465
58.9851
59.035
59.0796
59.1607
59.1913
59.2791
59.3061
59.3574
-1.56402
-1.46423
-1.53028
-1.28011
-1.23853
-1.0569
-0.907895
-0.747368
-0.583008
-0.416823
-0.250264
-0.0834883
58.8715
58.8763
58.8894
58.9109
58.9413
58.9797
59.0298
59.0758
59.1575
59.192
59.2809
59.3122
59.365
-1.57822
-1.47791
-1.54353
-1.29203
-1.24949
-1.06639
-0.916015
-0.754038
-0.588202
-0.420533
-0.25249
-0.0842302
58.8676
58.8722
58.8849
58.9061
58.9361
58.9744
59.0245
59.072
59.1543
59.193
59.2835
59.319
59.3739
-1.59249
-1.49162
-1.5568
-1.304
-1.2605
-1.07593
-0.924187
-0.760753
-0.593434
-0.424271
-0.254733
-0.0849781
58.8638
58.8682
58.8806
58.9014
58.931
58.9691
59.0194
59.0683
59.1514
59.1943
59.287
59.3269
59.3842
-1.60662
-1.50515
-1.5699
-1.31583
-1.27138
-1.08537
-0.932279
-0.767407
-0.59862
-0.427978
-0.256958
-0.08572
58.8603
58.8645
58.8765
58.8969
58.9261
58.964
59.0143
59.0648
59.1487
59.1959
59.2915
59.336
59.396
-1.62036
-1.51828
-1.5826
-1.32732
-1.28196
-1.09456
-0.94016
-0.773891
-0.603675
-0.431592
-0.259128
-0.0864438
58.8571
58.8611
58.8727
58.8926
58.9214
58.9592
59.0096
59.0615
59.1463
59.1978
59.2969
59.346
59.4092
-1.63352
-1.5308
-1.5947
-1.3383
-1.29207
-1.10335
-0.947699
-0.780096
-0.608516
-0.435053
-0.261207
-0.0871373
58.8543
58.8581
58.8692
58.8887
58.9171
58.9547
59.0052
59.0585
59.1444
59.2
59.303
59.3569
59.4235
-1.64587
-1.54251
-1.60601
-1.34857
-1.30153
-1.11158
-0.954769
-0.785919
-0.61306
-0.438304
-0.263159
-0.0877887
58.852
58.8554
58.8662
58.8852
58.9132
58.9506
59.0012
59.0559
59.1428
59.2025
59.3095
59.3681
59.4384
-1.65722
-1.55324
-1.61634
-1.35798
-1.31019
-1.11913
-0.961251
-0.79126
-0.617229
-0.441287
-0.264951
-0.0883869
58.8502
58.8533
58.8635
58.8821
58.9098
58.947
58.9977
59.0537
59.1415
59.2049
59.3163
59.3794
59.4533
-1.6674
-1.56278
-1.6255
-1.36637
-1.31791
-1.12586
-0.967033
-0.796027
-0.620952
-0.443952
-0.266552
-0.0889212
58.8491
58.8516
58.8614
58.8795
58.9069
58.9439
58.9948
59.0519
59.1406
59.2073
59.3227
59.39
59.4676
-1.67626
-1.57106
-1.63338
-1.3736
-1.32455
-1.13165
-0.972017
-0.800137
-0.624162
-0.44625
-0.267933
-0.0893821
58.8486
58.8505
58.8597
58.8775
58.9045
58.9414
58.9924
59.0504
59.14
59.2094
59.3285
59.3995
59.4805
-1.68366
-1.57787
-1.63982
-1.37955
-1.33
-1.13641
-0.976114
-0.803517
-0.626803
-0.448141
-0.26907
-0.0897614
58.8499
58.85
58.8585
58.8759
58.9027
58.9396
58.9906
59.0494
59.1395
59.2112
59.3332
59.4074
59.4912
-1.68951
-1.58325
-1.64474
-1.38414
-1.33418
-1.14006
-0.979257
-0.80611
-0.628829
-0.44959
-0.269941
-0.0900521
58.8499
58.8495
58.8576
58.8749
58.9016
58.9383
58.9893
59.0487
59.1393
59.2124
59.3362
59.4132
59.499
-1.6937
-1.5868
-1.64804
-1.38726
-1.33701
-1.14252
-0.981387
-0.807866
-0.630201
-0.450573
-0.270531
-0.0902487
58.8554
58.8502
58.8573
58.8745
58.9011
58.9378
58.9888
59.0484
59.1393
59.2132
59.3387
59.4166
59.5033
-1.69616
-1.58923
-1.64967
-1.38895
-1.33847
-1.14376
-0.982479
-0.808759
-0.630897
-0.451072
-0.27083
-0.0903473
58.9111
58.9095
58.9218
58.9443
58.9755
59.0135
59.0619
59.0956
59.1754
59.177
59.2751
59.2764
59.3188
-1.48782
-1.38772
-1.45294
-1.21029
-1.17167
-0.998518
-0.856402
-0.704162
-0.548698
-0.39189
-0.235077
-0.0783396
58.9046
58.9077
58.921
58.9436
58.9749
59.013
59.0615
59.0954
59.175
59.1788
59.2708
59.2757
59.3196
-1.48844
-1.38875
-1.45467
-1.21161
-1.17298
-0.999686
-0.857367
-0.704957
-0.549315
-0.39233
-0.23534
-0.0784277
58.9022
58.906
58.9197
58.9423
58.9737
59.0118
59.0603
59.0947
59.1742
59.1795
59.2703
59.2759
59.321
-1.49117
-1.3921
-1.45806
-1.21454
-1.1757
-1.00202
-0.859342
-0.706572
-0.550569
-0.393222
-0.235874
-0.0786054
58.8983
58.9035
58.9176
58.9403
58.9717
59.0099
59.0585
59.0936
59.1728
59.1801
59.2691
59.2766
59.3225
-1.49586
-1.39698
-1.46307
-1.21889
-1.17974
-1.00549
-0.862291
-0.708983
-0.552439
-0.394554
-0.236671
-0.0788709
58.8948
58.9007
58.9149
58.9377
58.9691
59.0074
59.056
59.0919
59.171
59.1805
59.268
59.2775
59.324
-1.50237
-1.40366
-1.46966
-1.22467
-1.18506
-1.01007
-0.86618
-0.712161
-0.554905
-0.39631
-0.237723
-0.0792208
58.8912
58.8974
58.9118
58.9346
58.966
59.0042
59.0529
59.0897
59.1686
59.1807
59.2669
59.2785
59.3257
-1.51054
-1.41182
-1.4777
-1.23176
-1.19159
-1.01567
-0.870953
-0.716064
-0.557934
-0.398468
-0.239015
-0.0796509
58.8875
58.8939
58.9083
58.931
58.9623
59.0005
59.0493
59.087
59.1659
59.1805
59.2657
59.2797
59.3274
-1.52024
-1.42147
-1.48711
-1.24009
-1.19924
-1.02224
-0.876548
-0.72064
-0.561485
-0.400999
-0.240531
-0.0801555
58.8836
58.89
58.9044
58.927
58.9581
58.9963
59.045
59.0838
59.1626
59.1801
59.2645
59.281
59.3295
-1.53133
-1.43237
-1.49772
-1.24952
-1.20789
-1.02969
-0.882887
-0.725826
-0.565513
-0.403869
-0.242251
-0.0807279
58.8796
58.886
58.9002
58.9226
58.9535
58.9916
59.0403
59.0802
59.159
59.1793
59.2631
59.2825
59.3317
-1.5436
-1.44439
-1.50938
-1.25992
-1.21742
-1.0379
-0.889883
-0.731552
-0.56996
-0.40704
-0.244151
-0.0813605
58.8755
58.8818
58.8958
58.9179
58.9485
58.9865
59.0352
59.0761
59.155
59.1782
59.2616
59.2843
59.3343
-1.55687
-1.45733
-1.52193
-1.27112
-1.22769
-1.04675
-0.897433
-0.737736
-0.574764
-0.410466
-0.246204
-0.0820443
58.8714
58.8775
58.8913
58.9131
58.9433
58.9811
59.0296
59.0716
59.1506
59.1769
59.26
59.2864
59.3373
-1.57091
-1.47099
-1.53516
-1.28296
-1.23855
-1.05612
-0.905428
-0.744287
-0.579856
-0.414098
-0.248382
-0.0827695
58.8672
58.8732
58.8866
58.9081
58.9379
58.9754
59.0238
59.0669
59.146
59.1753
59.2585
59.2888
59.3408
-1.58552
-1.48514
-1.54886
-1.29525
-1.24982
-1.06586
-0.913747
-0.751107
-0.585159
-0.417882
-0.25065
-0.0835254
58.8631
58.8689
58.882
58.903
58.9324
58.9695
59.0178
59.0619
59.1412
59.1736
59.2571
59.2915
59.345
-1.60044
-1.49956
-1.56283
-1.30779
-1.26134
-1.07583
-0.92226
-0.758091
-0.590593
-0.42176
-0.252976
-0.0843004
58.8591
58.8647
58.8774
58.898
58.9269
58.9637
59.0117
59.0567
59.1363
59.1718
59.2562
59.2947
59.35
-1.61544
-1.51402
-1.57683
-1.32039
-1.27293
-1.08585
-0.930835
-0.765129
-0.596071
-0.425671
-0.255323
-0.0850826
58.8553
58.8607
58.873
58.893
58.9214
58.9578
59.0057
59.0516
59.1315
59.17
59.2557
59.2985
59.3559
-1.63027
-1.52828
-1.59065
-1.33284
-1.28438
-1.09578
-0.939333
-0.772109
-0.601506
-0.429553
-0.257652
-0.0858592
58.8518
58.8569
58.8688
58.8883
58.9162
58.9522
58.9998
59.0466
59.1269
59.1684
59.256
59.303
59.363
-1.64471
-1.54212
-1.60405
-1.34495
-1.29553
-1.10545
-0.947615
-0.778916
-0.606809
-0.433341
-0.259926
-0.0866175
58.8486
58.8534
58.8649
58.8839
58.9112
58.9468
58.9941
59.0419
59.1225
59.167
59.257
59.3083
59.371
-1.65852
-1.55531
-1.61682
-1.35651
-1.30618
-1.1147
-0.955543
-0.785436
-0.61189
-0.436973
-0.262106
-0.0873448
58.8457
58.8503
58.8613
58.8798
58.9065
58.9417
58.9888
59.0375
59.1186
59.1659
59.2586
59.3143
59.38
-1.67148
-1.56764
-1.62874
-1.36734
-1.31615
-1.12337
-0.962982
-0.791558
-0.616664
-0.440386
-0.264155
-0.0880285
58.8434
58.8476
58.8581
58.8761
58.9023
58.9371
58.984
59.0334
59.115
59.1651
59.2607
59.3207
59.3895
-1.68338
-1.57893
-1.63963
-1.37725
-1.32528
-1.13132
-0.969806
-0.797176
-0.621047
-0.44352
-0.266038
-0.0886568
58.8415
58.8454
58.8554
58.8729
58.8986
58.933
58.9797
59.0299
59.112
59.1645
59.2632
59.3271
59.3992
-1.69405
-1.58898
-1.6493
-1.38609
-1.33342
-1.13841
-0.975896
-0.802193
-0.624962
-0.446321
-0.267721
-0.0892184
58.8404
58.8437
58.8531
58.8701
58.8954
58.9295
58.976
59.0269
59.1094
59.1641
59.2657
59.3332
59.4084
-1.70333
-1.59768
-1.65761
-1.39371
-1.34042
-1.14452
-0.981147
-0.806521
-0.62834
-0.448738
-0.269173
-0.0897032
58.8398
58.8425
58.8514
58.8679
58.8929
58.9267
58.9731
59.0244
59.1073
59.1638
59.2679
59.3386
59.4166
-1.71108
-1.60483
-1.6644
-1.39997
-1.34617
-1.14953
-0.985465
-0.810081
-0.63112
-0.450728
-0.270369
-0.0901023
58.8411
58.842
58.8501
58.8663
58.891
58.9245
58.9708
59.0226
59.1058
59.1636
59.2697
59.3429
59.4233
-1.71719
-1.61048
-1.66959
-1.40481
-1.35058
-1.15338
-0.988778
-0.812812
-0.633253
-0.452254
-0.271286
-0.0904084
58.841
58.8415
58.8492
58.8652
58.8896
58.9231
58.9692
59.0213
59.1047
59.1635
59.2705
59.346
59.428
-1.72157
-1.61421
-1.67307
-1.40809
-1.35356
-1.15598
-0.991023
-0.814663
-0.634698
-0.453288
-0.271907
-0.0906156
58.8466
58.8422
58.8489
58.8648
58.8891
58.9224
58.9686
59.0208
59.1043
59.1638
59.2712
59.3476
59.4303
-1.72413
-1.61673
-1.67478
-1.40986
-1.3551
-1.15728
-0.992173
-0.815604
-0.635432
-0.453814
-0.272223
-0.0907198
58.902
58.9009
58.9132
58.9355
58.9664
59.004
59.0521
59.0859
59.165
59.1684
59.2641
59.2677
59.3107
-1.51064
-1.40904
-1.47118
-1.22491
-1.1817
-1.00622
-0.860707
-0.706335
-0.549415
-0.391784
-0.234685
-0.0780854
58.8954
58.8992
58.9125
58.9349
58.9658
59.0035
59.0516
59.0857
59.1645
59.1699
59.2599
59.267
59.3115
-1.51135
-1.41017
-1.47302
-1.22632
-1.1831
-1.00745
-0.861723
-0.70717
-0.550062
-0.392244
-0.234959
-0.078177
58.8929
58.8975
58.9111
58.9335
58.9645
59.0022
59.0503
59.0849
59.1635
59.1704
59.2592
59.267
59.3128
-1.51431
-1.41377
-1.47663
-1.22943
-1.18597
-1.00992
-0.863803
-0.708866
-0.551376
-0.393178
-0.235517
-0.0783626
58.8891
58.8949
58.9089
58.9315
58.9624
59.0002
59.0483
59.0834
59.1618
59.1706
59.2575
59.2673
59.3139
-1.51933
-1.419
-1.48198
-1.23406
-1.19025
-1.01359
-0.86691
-0.711401
-0.553339
-0.394574
-0.236352
-0.0786403
58.8856
58.892
58.9063
58.9288
58.9597
58.9975
59.0455
59.0814
59.1595
59.1704
59.2558
59.2675
59.3149
-1.52629
-1.42614
-1.48901
-1.24022
-1.19589
-1.01842
-0.871008
-0.714743
-0.555928
-0.396416
-0.237454
-0.0790068
58.882
58.8887
58.9031
58.9256
58.9564
58.9941
59.0421
59.0787
59.1566
59.1698
59.2538
59.2677
59.3157
-1.53502
-1.43489
-1.4976
-1.24776
-1.20281
-1.02435
-0.876042
-0.718851
-0.559111
-0.398681
-0.23881
-0.0794576
58.8782
58.885
58.8995
58.9218
58.9525
58.9901
59.038
59.0754
59.1531
59.1687
59.2514
59.2678
59.3164
-1.5454
-1.44521
-1.50764
-1.25663
-1.21093
-1.03131
-0.881949
-0.723672
-0.562847
-0.40134
-0.240402
-0.0799872
58.8743
58.8811
58.8955
58.9176
58.9481
58.9855
59.0333
59.0715
59.1489
59.167
59.2485
59.2677
59.3169
-1.55724
-1.45687
-1.51898
-1.26667
-1.22011
-1.03919
-0.888648
-0.729142
-0.567088
-0.404359
-0.24221
-0.0805887
58.8702
58.877
58.8912
58.9131
58.9432
58.9804
59.0279
59.0669
59.1442
59.1646
59.245
59.2673
59.3172
-1.57036
-1.46974
-1.53146
-1.27774
-1.23024
-1.0479
-0.896048
-0.735188
-0.571776
-0.407698
-0.244209
-0.0812542
58.8661
58.8727
58.8867
58.9082
58.9379
58.9748
59.0221
59.0618
59.1388
59.1615
59.2409
59.2666
59.3171
-1.58454
-1.48359
-1.54487
-1.28969
-1.24117
-1.0573
-0.904044
-0.741724
-0.576847
-0.411311
-0.246373
-0.0819745
58.8619
58.8684
58.882
58.9031
58.9324
58.9688
59.0157
59.0561
59.1328
59.1577
59.236
59.2654
59.3166
-1.59955
-1.49821
-1.55903
-1.30231
-1.25273
-1.06725
-0.91252
-0.748657
-0.582229
-0.415145
-0.24867
-0.0827394
58.8577
58.864
58.8772
58.8979
58.9266
58.9626
59.009
59.0498
59.1263
59.1532
59.2305
59.2635
59.3157
-1.61514
-1.51336
-1.5737
-1.31542
-1.26475
-1.07761
-0.92135
-0.755884
-0.58784
-0.419145
-0.251068
-0.0835379
58.8535
58.8596
58.8724
58.8926
58.9207
58.9561
59.0019
59.0432
59.1194
59.1479
59.2245
59.2611
59.3144
-1.63108
-1.52879
-1.58865
-1.32882
-1.27703
-1.08822
-0.930396
-0.763294
-0.593597
-0.42325
-0.253528
-0.0843577
58.8495
58.8553
58.8677
58.8873
58.9147
58.9495
58.9948
59.0364
59.1121
59.1421
59.2182
59.2581
59.3129
-1.64709
-1.54427
-1.60365
-1.34228
-1.2894
-1.09891
-0.939518
-0.770771
-0.599409
-0.427396
-0.256014
-0.085186
58.8456
58.8512
58.8631
58.8821
58.9089
58.943
58.9875
59.0293
59.1048
59.136
59.212
59.2551
59.3115
-1.66292
-1.55953
-1.61845
-1.35559
-1.30164
-1.10949
-0.948568
-0.778193
-0.605182
-0.431515
-0.258485
-0.0860096
58.842
58.8473
58.8588
58.8772
58.9032
58.9366
58.9804
59.0224
59.0974
59.1296
59.2058
59.2521
59.3104
-1.67832
-1.57432
-1.6328
-1.36853
-1.31355
-1.11981
-0.957396
-0.785439
-0.610821
-0.43554
-0.260899
-0.0868148
58.8387
58.8437
58.8547
58.8724
58.8977
58.9304
58.9735
59.0156
59.0902
59.1234
59.2001
59.2495
59.3097
-1.69303
-1.58843
-1.64648
-1.3809
-1.32493
-1.12969
-0.965853
-0.792387
-0.616229
-0.439402
-0.263217
-0.0875879
58.8358
58.8405
58.851
58.8681
58.8927
58.9246
58.967
59.0092
59.0834
59.1175
59.195
59.2472
59.3096
-1.70683
-1.60161
-1.65925
-1.39247
-1.3356
-1.13896
-0.973796
-0.798916
-0.621315
-0.443036
-0.265398
-0.0883155
58.8334
58.8378
58.8477
58.8642
58.8881
58.9193
58.9611
59.0032
59.0771
59.1119
59.1904
59.2453
59.3098
-1.71951
-1.61367
-1.67091
-1.40308
-1.34538
-1.14746
-0.981086
-0.804913
-0.625989
-0.446375
-0.267404
-0.0889847
58.8315
58.8355
58.8448
58.8607
58.884
58.9146
58.9558
58.9979
59.0714
59.1069
59.1863
59.2435
59.3102
-1.73086
-1.6244
-1.68127
-1.41252
-1.35409
-1.15504
-0.987596
-0.810271
-0.630167
-0.449362
-0.269197
-0.0895834
58.8303
58.8337
58.8425
58.8578
58.8805
58.9106
58.9512
58.9933
59.0665
59.1024
59.1827
59.2417
59.3103
-1.74071
-1.63368
-1.69016
-1.42068
-1.36159
-1.16158
-0.993212
-0.814896
-0.633774
-0.451941
-0.270747
-0.0901007
58.8297
58.8325
58.8406
58.8555
58.8776
58.9072
58.9474
58.9894
59.0623
59.0987
59.1794
59.2398
59.31
-1.74894
-1.64131
-1.69743
-1.42737
-1.36774
-1.16695
-0.997832
-0.818703
-0.636745
-0.454066
-0.272023
-0.0905269
58.8309
58.832
58.8393
58.8537
58.8755
58.9047
58.9445
58.9865
59.059
59.0957
59.1767
59.2377
59.309
-1.75542
-1.6473
-1.70298
-1.43254
-1.37247
-1.17107
-1.00138
-0.821624
-0.639024
-0.455696
-0.273003
-0.090854
58.8309
58.8314
58.8384
58.8526
58.8741
58.903
58.9425
58.9845
59.0566
59.0937
59.1741
59.2357
59.3076
-1.76006
-1.65128
-1.7067
-1.43604
-1.37566
-1.17385
-1.00378
-0.823603
-0.640569
-0.456802
-0.273668
-0.0910756
58.8363
58.8321
58.838
58.8521
58.8734
58.9023
58.9416
58.9836
59.0554
59.093
59.1729
59.2318
59.3059
-1.76276
-1.65392
-1.70855
-1.43792
-1.37731
-1.17524
-1.00501
-0.82461
-0.641354
-0.457364
-0.274005
-0.0911876
58.8914
58.8906
58.9028
58.9248
58.9552
58.9923
59.0398
59.0738
59.152
59.1571
59.251
59.2567
59.3001
-1.53973
-1.43588
-1.49392
-1.24307
-1.19398
-1.0155
-0.865766
-0.708734
-0.550035
-0.391438
-0.234058
-0.0777185
58.8848
58.8888
58.902
58.9241
58.9546
58.9917
59.0392
59.0735
59.1514
59.1584
59.2467
59.2559
59.3009
-1.54062
-1.43716
-1.4959
-1.2446
-1.19547
-1.01682
-0.866845
-0.709618
-0.550718
-0.391922
-0.234346
-0.0778141
58.8823
58.8871
58.9006
58.9226
58.9531
58.9903
59.0378
59.0725
59.1501
59.1586
59.2456
59.2556
59.302
-1.54386
-1.44106
-1.4998
-1.24795
-1.19854
-1.01945
-0.869056
-0.711416
-0.552108
-0.392909
-0.234934
-0.0780095
58.8784
58.8844
58.8984
58.9205
58.951
58.9881
59.0355
59.0707
59.1481
59.1584
59.2433
59.2554
59.3027
-1.54933
-1.44675
-1.50558
-1.25293
-1.20312
-1.02336
-0.872359
-0.714104
-0.554185
-0.394384
-0.235816
-0.0783023
58.8749
58.8815
58.8956
58.9177
58.9481
58.9852
59.0325
59.0682
59.1452
59.1575
59.2407
59.2549
59.3029
-1.55688
-1.4545
-1.51317
-1.25955
-1.20917
-1.02852
-0.87672
-0.717651
-0.556928
-0.396332
-0.23698
-0.0786893
58.8712
58.8781
58.8924
58.9144
58.9446
58.9815
59.0286
59.065
59.1416
59.156
59.2376
59.254
59.3027
-1.56635
-1.46398
-1.52246
-1.26767
-1.21659
-1.03486
-0.882082
-0.722015
-0.560302
-0.39873
-0.238414
-0.079166
58.8674
58.8744
58.8886
58.9105
58.9404
58.9771
59.024
59.0609
59.1372
59.1536
59.2337
59.2527
59.302
-1.5776
-1.47517
-1.53332
-1.27722
-1.22529
-1.0423
-0.88838
-0.727143
-0.564269
-0.40155
-0.240101
-0.0797266
58.8635
58.8704
58.8845
58.9061
58.9357
58.9721
59.0187
59.0561
59.1319
59.1503
59.2287
59.2507
59.3004
-1.59044
-1.48782
-1.5456
-1.28804
-1.23516
-1.05075
-0.895532
-0.732969
-0.568777
-0.404755
-0.242019
-0.0803644
58.8594
58.8662
58.8801
58.9014
58.9305
58.9665
59.0126
59.0505
59.1257
59.1459
59.2225
59.2477
59.2979
-1.60466
-1.50177
-1.55911
-1.29998
-1.24605
-1.06008
-0.903443
-0.739418
-0.573769
-0.408305
-0.244143
-0.081071
58.8552
58.8619
58.8755
58.8963
58.9249
58.9604
59.0058
59.044
59.1186
59.1402
59.2149
59.2435
59.294
-1.62002