/*--------------------------------*- C++ -*----------------------------------*\
| =========                 |                                                 |
| \\      /  F ield         | OpenFOAM: The Open Source CFD Toolbox           |
|  \\    /   O peration     | Version:  2306                                  |
|   \\  /    A nd           | Website:  www.openfoam.com                      |
|    \\/     M anipulation  |                                                 |
\*---------------------------------------------------------------------------*/
FoamFile
{
    version     2.0;
    format      ascii;
    arch        "LSB;label=32;scalar=64";
    class       volScalarField;
    location    "0.2";
    object      p;
}
// * * * * * * * * * * * * * * * * * * * * * * * * * * * * * * * * * * * * * //

dimensions      [0 2 -2 0 0 0 0];

internalField   nonuniform List<scalar> 
288632
(
57.2298
57.2283
57.2463
57.279
57.3246
57.3815
57.4477
57.52
57.594
57.658
57.9711
55.9148
56.6205
0.69642
0.519619
0.360035
0.321931
0.28636
0.249545
0.211872
0.173608
0.134942
0.0960217
0.0566728
0.018503
57.2253
57.2268
57.2454
57.2783
57.324
57.3811
57.4475
57.5202
57.5946
57.6588
57.9673
55.9132
56.6302
0.693445
0.52406
0.360171
0.321926
0.286144
0.249297
0.211649
0.173422
0.134796
0.0959173
0.056609
0.0184808
57.2214
57.2244
57.2435
57.2767
57.3226
57.38
57.447
57.5204
57.5959
57.6619
57.9644
55.9223
56.6361
0.696477
0.520628
0.358537
0.321039
0.285528
0.248775
0.211203
0.173054
0.134509
0.0957116
0.0564852
0.0184392
57.2174
57.2212
57.2409
57.2743
57.3205
57.3784
57.446
57.5205
57.5977
57.6662
57.9594
55.9372
56.6458
0.698648
0.520925
0.357776
0.320085
0.28465
0.248004
0.210542
0.172508
0.134083
0.095407
0.0563027
0.0183784
57.2131
57.2174
57.2375
57.2712
57.3177
57.3761
57.4447
57.5207
57.6
57.6717
57.9525
55.9581
56.6594
0.697772
0.519587
0.356541
0.318849
0.283507
0.246992
0.209674
0.171792
0.133524
0.0950077
0.0560636
0.0182989
57.2084
57.2131
57.2334
57.2674
57.3143
57.3733
57.443
57.5206
57.6025
57.678
57.9443
55.9852
56.6773
0.696434
0.517829
0.354979
0.317335
0.282113
0.245754
0.208611
0.170915
0.13284
0.0945188
0.0557709
0.0182016
57.2034
57.2082
57.2288
57.2629
57.3102
57.37
57.4409
57.5205
57.6052
57.685
57.935
56.019
56.6996
0.694747
0.515673
0.353115
0.315558
0.28048
0.244304
0.207366
0.169889
0.132039
0.093947
0.0554285
0.0180878
57.1981
57.203
57.2236
57.258
57.3056
57.3661
57.4384
57.5201
57.608
57.6924
57.9254
56.0597
56.7267
0.692734
0.513174
0.350977
0.313537
0.27863
0.242662
0.205958
0.168728
0.131133
0.0932999
0.055041
0.0179589
57.1924
57.1973
57.218
57.2525
57.3005
57.3618
57.4355
57.5195
57.6107
57.6998
57.916
56.1075
56.7587
0.690466
0.510385
0.348594
0.311297
0.276585
0.24085
0.204404
0.167448
0.130135
0.0925866
0.0546138
0.017817
57.1865
57.1914
57.2121
57.2467
57.295
57.3571
57.4323
57.5188
57.6134
57.7073
57.9076
56.1625
56.7958
0.687976
0.507358
0.346002
0.308868
0.274373
0.238892
0.202726
0.166067
0.129058
0.0918173
0.0541532
0.017664
57.1805
57.1853
57.2059
57.2405
57.2892
57.352
57.4288
57.5178
57.616
57.7145
57.9007
56.2244
56.8381
0.68529
0.504134
0.343236
0.306286
0.272025
0.236817
0.200949
0.164604
0.127918
0.0910033
0.053666
0.0175023
57.1743
57.1791
57.1996
57.2342
57.2831
57.3468
57.4251
57.5168
57.6186
57.7216
57.8963
56.2929
56.8855
0.68248
0.500772
0.340339
0.303587
0.269576
0.234654
0.199099
0.163082
0.126733
0.0901569
0.0531595
0.0173341
57.1682
57.1729
57.1932
57.2278
57.2769
57.3413
57.4213
57.5157
57.6213
57.7287
57.8948
56.3674
56.9377
0.67957
0.497333
0.337361
0.300813
0.267061
0.232437
0.197203
0.161524
0.125519
0.089291
0.0526414
0.0171621
57.1622
57.1667
57.1869
57.2213
57.2706
57.3358
57.4175
57.5148
57.6243
57.7359
57.8967
56.4469
56.9942
0.676613
0.493866
0.33434
0.298007
0.264521
0.230198
0.195291
0.159953
0.124296
0.0884189
0.0521196
0.0169888
57.1564
57.1608
57.1807
57.215
57.2644
57.3304
57.4138
57.5141
57.6276
57.7436
57.9023
56.5302
57.0546
0.673603
0.490415
0.331331
0.295213
0.261995
0.227975
0.193394
0.158395
0.123084
0.0875542
0.0516023
0.0168169
57.1509
57.1551
57.1748
57.2089
57.2584
57.3251
57.4103
57.5136
57.6315
57.7519
57.9116
56.6158
57.118
0.670655
0.487037
0.32838
0.292477
0.259524
0.225803
0.191541
0.156874
0.121901
0.086711
0.0510977
0.0166492
57.1458
57.1498
57.1692
57.2031
57.2527
57.3201
57.4071
57.5136
57.6359
57.761
57.9242
56.7021
57.1832
0.667755
0.483783
0.325534
0.289843
0.25715
0.223718
0.189764
0.155416
0.120768
0.085903
0.0506143
0.0164886
57.1412
57.1451
57.1641
57.1977
57.2474
57.3155
57.4042
57.5139
57.6409
57.7712
57.9394
56.7871
57.2487
0.665022
0.480698
0.322839
0.287357
0.254914
0.221756
0.188094
0.154046
0.119703
0.0851439
0.0501602
0.0163378
57.1373
57.1408
57.1595
57.1929
57.2426
57.3113
57.4017
57.5146
57.6463
57.7824
57.9562
56.869
57.3131
0.662445
0.477827
0.320339
0.285061
0.252855
0.219953
0.186559
0.152788
0.118725
0.084447
0.0497434
0.0161995
57.1341
57.1373
57.1556
57.1886
57.2383
57.3076
57.3996
57.5155
57.652
57.794
57.9734
56.9459
57.3746
0.660066
0.475208
0.318078
0.282998
0.251011
0.218339
0.185186
0.151663
0.117851
0.0838244
0.0493712
0.016076
57.1317
57.1344
57.1523
57.185
57.2347
57.3045
57.3979
57.5167
57.6575
57.8055
57.99
57.0159
57.4317
0.657902
0.472873
0.316095
0.281209
0.249417
0.216946
0.184001
0.150693
0.117097
0.0832872
0.0490502
0.0159696
57.1302
57.1324
57.1497
57.1821
57.2317
57.302
57.3966
57.5178
57.6626
57.816
58.0049
57.0771
57.4826
0.655989
0.470909
0.314422
0.279727
0.248108
0.215799
0.183026
0.149893
0.116476
0.082845
0.0487861
0.0158822
57.1299
57.1311
57.1478
57.1799
57.2295
57.3001
57.3957
57.5189
57.6669
57.8248
58.0171
57.1282
57.5255
0.654898
0.467706
0.312863
0.278586
0.247111
0.21492
0.182276
0.149279
0.115999
0.0825058
0.0485837
0.0158153
57.1309
57.1306
57.1467
57.1785
57.2281
57.2989
57.3952
57.5198
57.67
57.8311
58.0253
57.1665
57.5585
0.658419
0.46973
0.313043
0.278155
0.246473
0.214325
0.181768
0.148863
0.115676
0.0822757
0.0484469
0.0157704
57.1339
57.1307
57.1462
57.1779
57.2275
57.2984
57.3951
57.5204
57.6719
57.8347
58.0312
57.1877
57.58
0.65824
0.464203
0.312131
0.277415
0.246041
0.214009
0.181507
0.14865
0.115511
0.0821587
0.0483782
0.0157485
57.2236
57.225
57.2435
57.2762
57.3217
57.3786
57.4447
57.5169
57.5909
57.6547
57.9634
55.9096
56.6268
0.701485
0.519214
0.359195
0.321062
0.28561
0.248942
0.211423
0.173304
0.134762
0.0959384
0.0566524
0.0185081
57.2191
57.2235
57.2425
57.2755
57.3211
57.3781
57.4445
57.5171
57.5915
57.6554
57.9607
55.9074
56.6366
0.698791
0.52341
0.359276
0.321027
0.285376
0.248685
0.211196
0.173115
0.134614
0.0958325
0.0565878
0.0184858
57.2152
57.2211
57.2407
57.2738
57.3197
57.377
57.4438
57.5172
57.5927
57.6583
57.958
55.9165
56.6426
0.701964
0.52004
0.357672
0.320152
0.284754
0.248155
0.210743
0.172741
0.134322
0.0956239
0.0564625
0.0184437
57.2112
57.2179
57.238
57.2714
57.3175
57.3752
57.4428
57.5173
57.5944
57.6625
57.9529
55.9314
56.6524
0.704088
0.520203
0.356852
0.319171
0.283861
0.247371
0.21007
0.172187
0.13389
0.095315
0.0562775
0.0183821
57.2068
57.2141
57.2345
57.2682
57.3147
57.3729
57.4413
57.5172
57.5965
57.6677
57.9458
55.9523
56.6662
0.703176
0.518838
0.355589
0.317909
0.282697
0.246341
0.209188
0.171459
0.133323
0.09491
0.0560351
0.0183016
57.2022
57.2097
57.2304
57.2644
57.3111
57.37
57.4394
57.517
57.5987
57.6737
57.9373
55.9795
56.6843
0.70186
0.517046
0.353995
0.316364
0.281276
0.24508
0.208107
0.170569
0.132628
0.0944141
0.0557384
0.0182029
57.1971
57.2048
57.2257
57.2599
57.3069
57.3665
57.4371
57.5165
57.6011
57.6803
57.9277
56.0135
56.707
0.700165
0.514845
0.352091
0.314551
0.279612
0.243605
0.206841
0.169526
0.131815
0.0938338
0.0553911
0.0180875
57.1917
57.1995
57.2205
57.2548
57.3022
57.3624
57.4344
57.5158
57.6034
57.6871
57.9176
56.0545
56.7345
0.698143
0.512293
0.349907
0.312488
0.277726
0.241933
0.205409
0.168346
0.130895
0.093177
0.0549979
0.0179569
57.186
57.1938
57.2149
57.2492
57.297
57.3579
57.4312
57.5149
57.6057
57.694
57.9076
56.1027
56.7669
0.695853
0.509441
0.347472
0.310202
0.275642
0.240088
0.203828
0.167045
0.129881
0.0924529
0.0545645
0.0178131
57.1801
57.1879
57.2089
57.2433
57.2913
57.353
57.4277
57.5137
57.6078
57.7006
57.8985
56.1582
56.8046
0.693336
0.506343
0.344823
0.307723
0.273386
0.238094
0.202121
0.16564
0.128787
0.0916717
0.0540971
0.017658
57.174
57.1817
57.2026
57.237
57.2853
57.3477
57.4238
57.5122
57.6098
57.7069
57.891
56.2207
56.8474
0.690637
0.503044
0.341996
0.305087
0.270992
0.23598
0.200312
0.164153
0.127629
0.0908451
0.0536027
0.0174939
57.1678
57.1754
57.1962
57.2306
57.279
57.3421
57.4198
57.5107
57.6117
57.713
57.8858
56.2899
56.8953
0.687798
0.499604
0.339036
0.302332
0.268494
0.233776
0.198429
0.162605
0.126424
0.0899854
0.0530885
0.0173233
57.1616
57.1691
57.1897
57.224
57.2726
57.3363
57.4156
57.5091
57.6136
57.719
57.8836
56.3651
56.948
0.684861
0.496083
0.335993
0.299499
0.265929
0.231516
0.196498
0.16102
0.12519
0.0891056
0.0525624
0.0171487
57.1556
57.1629
57.1833
57.2174
57.2661
57.3306
57.4113
57.5076
57.6158
57.7251
57.8848
56.4453
57.0049
0.681852
0.492526
0.332911
0.296634
0.263337
0.229234
0.194551
0.159421
0.123947
0.0882192
0.0520323
0.0169727
57.1497
57.1569
57.177
57.2109
57.2597
57.3248
57.4072
57.5063
57.6184
57.7317
57.8897
56.5292
57.0654
0.678815
0.488991
0.329835
0.29378
0.260759
0.226967
0.192618
0.157835
0.122713
0.0873401
0.0515066
0.0167981
57.1442
57.1512
57.171
57.2047
57.2535
57.3192
57.4032
57.5052
57.6215
57.739
57.8983
56.6153
57.1287
0.675791
0.485531
0.326817
0.290984
0.258237
0.224752
0.19073
0.156286
0.12151
0.0864826
0.0509937
0.0166277
57.139
57.1458
57.1654
57.1987
57.2476
57.3139
57.3995
57.5046
57.6253
57.7473
57.9102
56.7019
57.1938
0.672896
0.482197
0.323905
0.288293
0.255813
0.222626
0.188919
0.154802
0.120356
0.0856607
0.0505022
0.0164645
57.1344
57.141
57.1602
57.1932
57.242
57.309
57.3962
57.5044
57.6297
57.7567
57.9245
56.7872
57.2591
0.670108
0.47904
0.321147
0.285752
0.25353
0.220625
0.187217
0.153407
0.119272
0.0848885
0.0500405
0.0163113
57.1304
57.1367
57.1555
57.1883
57.237
57.3045
57.3933
57.5045
57.6345
57.7673
57.9404
56.8695
57.3231
0.6675
0.476104
0.318589
0.283406
0.251427
0.218784
0.185652
0.152125
0.118277
0.0841795
0.0496167
0.0161707
57.1271
57.1331
57.1515
57.1839
57.2326
57.3005
57.3908
57.505
57.6397
57.7785
57.9567
56.9467
57.3844
0.665074
0.47343
0.316276
0.281297
0.249544
0.217138
0.184252
0.150979
0.117387
0.0835459
0.0492382
0.0160453
57.1247
57.1302
57.1481
57.1802
57.2288
57.2971
57.3888
57.5056
57.6447
57.7895
57.9724
57.0173
57.4413
0.662914
0.471044
0.314246
0.279468
0.247917
0.215716
0.183044
0.14999
0.116619
0.0829992
0.0489116
0.0159371
57.1232
57.1281
57.1455
57.1772
57.2257
57.2944
57.3872
57.5064
57.6494
57.7996
57.9862
57.0792
57.4921
0.660959
0.469045
0.312533
0.277956
0.246579
0.214545
0.182049
0.149175
0.115986
0.0825491
0.0486429
0.0158481
57.1229
57.1268
57.1436
57.175
57.2234
57.2924
57.3861
57.5072
57.6533
57.808
57.9972
57.1313
57.5349
0.659855
0.465906
0.310987
0.276797
0.245561
0.213647
0.181285
0.148549
0.115501
0.0822038
0.0484369
0.01578
57.1239
57.1263
57.1424
57.1736
57.2219
57.2911
57.3854
57.5078
57.6562
57.8143
58.0039
57.1705
57.5679
0.663433
0.467806
0.31111
0.276326
0.2449
0.213039
0.180766
0.148124
0.115171
0.0819695
0.0482976
0.0157343
57.1268
57.1263
57.1419
57.1729
57.2213
57.2906
57.3852
57.5083
57.658
57.8187
58.0057
57.1942
57.5897
0.66354
0.462538
0.310227
0.275598
0.244475
0.21272
0.180501
0.147908
0.115004
0.0818506
0.0482278
0.0157121
57.2162
57.2189
57.2378
57.2705
57.3158
57.3724
57.4384
57.5107
57.585
57.6496
57.9532
55.9095
56.6247
0.704851
0.514049
0.357436
0.319505
0.284316
0.247938
0.210707
0.172848
0.134522
0.095859
0.0566668
0.0185386
57.2117
57.2175
57.2369
57.2697
57.3151
57.3719
57.4381
57.5108
57.5855
57.6502
57.9506
55.9073
56.6346
0.702237
0.518189
0.357508
0.319445
0.284066
0.247669
0.210471
0.172653
0.13437
0.0957502
0.0566006
0.0185158
57.2077
57.215
57.235
57.268
57.3137
57.3707
57.4374
57.5107
57.5865
57.6528
57.9476
55.9165
56.6406
0.705478
0.514889
0.355935
0.318566
0.283425
0.247123
0.210004
0.172268
0.13407
0.0955358
0.056472
0.0184727
57.2037
57.2118
57.2322
57.2655
57.3114
57.3688
57.4361
57.5105
57.5879
57.6567
57.942
55.9317
56.6504
0.70746
0.514909
0.355044
0.317543
0.2825
0.246313
0.20931
0.171697
0.133625
0.0952184
0.0562821
0.0184095
57.1993
57.2079
57.2287
57.2623
57.3084
57.3663
57.4344
57.5101
57.5895
57.6614
57.9343
55.9531
56.6644
0.706547
0.513492
0.353726
0.316232
0.281293
0.245247
0.208399
0.170947
0.133041
0.094802
0.0560332
0.0183268
57.1946
57.2035
57.2245
57.2583
57.3047
57.3631
57.4322
57.5094
57.5912
57.6667
57.9247
55.9809
56.6826
0.705183
0.511622
0.352062
0.314624
0.279819
0.243942
0.207282
0.170028
0.132326
0.094292
0.0557283
0.0182256
57.1894
57.1985
57.2197
57.2536
57.3003
57.3593
57.4294
57.5084
57.5928
57.6724
57.9139
56.0158
56.7054
0.70342
0.509334
0.350078
0.312739
0.278094
0.242415
0.205975
0.168953
0.131489
0.093695
0.0553714
0.0181072
57.184
57.1931
57.2143
57.2484
57.2953
57.3549
57.4261
57.507
57.5943
57.6781
57.9023
56.0579
56.733
0.701334
0.506681
0.347802
0.310593
0.276136
0.240684
0.204494
0.167736
0.130541
0.093019
0.0549672
0.0179732
57.1782
57.1873
57.2086
57.2426
57.2897
57.3499
57.4224
57.5053
57.5955
57.6836
57.8906
56.1075
56.7656
0.698968
0.503714
0.345264
0.308215
0.273972
0.238772
0.202859
0.166392
0.129495
0.0922734
0.0545215
0.0178254
57.1722
57.1812
57.2024
57.2364
57.2837
57.3445
57.4182
57.5032
57.5964
57.6885
57.8796
56.1645
56.8032
0.696362
0.500487
0.342501
0.305635
0.27163
0.236706
0.201094
0.164942
0.128367
0.0914688
0.0540407
0.0176661
57.166
57.175
57.196
57.2299
57.2774
57.3387
57.4137
57.5008
57.597
57.6929
57.8699
56.2288
56.8459
0.693564
0.497054
0.339555
0.302891
0.269143
0.234514
0.199222
0.163405
0.127172
0.0906169
0.0535317
0.0174974
57.1597
57.1685
57.1894
57.2232
57.2707
57.3325
57.4088
57.4982
57.5975
57.6968
57.8625
56.2999
56.8936
0.690608
0.493473
0.33647
0.300022
0.266547
0.232228
0.197272
0.161805
0.125927
0.0897304
0.0530021
0.0173218
57.1534
57.1621
57.1827
57.2163
57.2639
57.3262
57.4038
57.4954
57.5979
57.7004
57.8579
56.377
56.9456
0.687543
0.489801
0.333293
0.297071
0.26388
0.229883
0.195272
0.160165
0.124653
0.0888227
0.0524598
0.017142
57.1472
57.1558
57.1761
57.2095
57.257
57.3198
57.3986
57.4927
57.5985
57.7042
57.8567
56.4588
57.0017
0.684419
0.486094
0.330073
0.294085
0.261185
0.227514
0.193254
0.15851
0.123368
0.0879076
0.0519131
0.0169606
57.1413
57.1496
57.1697
57.2027
57.2501
57.3134
57.3936
57.4902
57.5995
57.7084
57.8592
56.5442
57.0613
0.681273
0.482406
0.32686
0.29111
0.258502
0.22516
0.19125
0.156868
0.122092
0.0869997
0.0513706
0.0167806
57.1356
57.1438
57.1635
57.1962
57.2435
57.3072
57.3887
57.4879
57.6012
57.7137
57.8654
56.6316
57.1233
0.678157
0.478794
0.323706
0.288195
0.255878
0.222858
0.189291
0.155264
0.120848
0.0861135
0.0508411
0.016605
57.1304
57.1383
57.1576
57.19
57.2371
57.3012
57.3841
57.4861
57.6035
57.7203
57.8748
56.7193
57.1867
0.675126
0.475313
0.320663
0.285388
0.253355
0.220648
0.187413
0.153726
0.119654
0.0852639
0.0503335
0.0164367
57.1257
57.1333
57.1523
57.1842
57.2312
57.2956
57.3798
57.4846
57.6065
57.7285
57.8867
56.8057
57.2504
0.672228
0.472016
0.31778
0.282737
0.250977
0.218568
0.185645
0.15228
0.118532
0.0844655
0.0498566
0.0162786
57.1216
57.129
57.1474
57.179
57.2258
57.2905
57.376
57.4837
57.6101
57.7379
57.9001
56.8891
57.3127
0.669496
0.468951
0.315106
0.280289
0.248786
0.216654
0.18402
0.15095
0.117501
0.083732
0.0494186
0.0161335
57.1183
57.1253
57.1433
57.1744
57.221
57.286
57.3727
57.4831
57.6141
57.748
57.9142
56.9675
57.3723
0.666987
0.466158
0.312687
0.278089
0.246824
0.214941
0.182566
0.149762
0.116579
0.0830764
0.0490273
0.0160038
57.1158
57.1223
57.1398
57.1705
57.2169
57.2822
57.37
57.4828
57.6181
57.758
57.9278
57.0394
57.4277
0.66472
0.463667
0.310563
0.27618
0.245128
0.21346
0.181311
0.148735
0.115783
0.0825106
0.0486895
0.0158919
57.1142
57.1201
57.137
57.1674
57.2136
57.2791
57.3678
57.4827
57.6218
57.7672
57.9397
57.103
57.4772
0.662694
0.461559
0.308766
0.274602
0.243733
0.212243
0.180276
0.14789
0.115128
0.0820446
0.0484115
0.0157999
57.1139
57.1188
57.1351
57.165
57.2111
57.2767
57.3662
57.4829
57.625
57.7748
57.9491
57.1567
57.519
0.661534
0.458434
0.307197
0.273397
0.24267
0.211307
0.179482
0.14724
0.114624
0.081687
0.0481983
0.0157295
57.1148
57.1182
57.1338
57.1635
57.2094
57.2752
57.3652
57.4831
57.6273
57.7806
57.9546
57.197
57.5516
0.665084
0.460188
0.307237
0.272871
0.241976
0.210673
0.178942
0.146799
0.114283
0.0814444
0.0480541
0.0156823
57.1177
57.1182
57.1333
57.1628
57.2087
57.2745
57.3649
57.4834
57.6288
57.7849
57.9561
57.2204
57.5733
0.665151
0.454944
0.306327
0.272137
0.241541
0.210342
0.178666
0.146575
0.114109
0.0813212
0.0479819
0.0156593
57.2069
57.2104
57.2294
57.262
57.3069
57.3632
57.429
57.5013
57.576
57.6418
57.9371
55.91
56.6214
0.709721
0.506563
0.355014
0.317275
0.282469
0.246524
0.209717
0.172237
0.134222
0.0957837
0.0567161
0.0185944
57.2024
57.2089
57.2285
57.2611
57.3062
57.3626
57.4286
57.5012
57.5764
57.6422
57.9345
55.9078
56.6313
0.707126
0.510619
0.355073
0.317187
0.2822
0.246239
0.209471
0.172034
0.134064
0.0956706
0.0566475
0.0185708
57.1984
57.2064
57.2265
57.2594
57.3046
57.3613
57.4276
57.5009
57.5771
57.6445
57.931
55.9173
56.6374
0.710544
0.507348
0.353504
0.316285
0.281527
0.245668
0.208981
0.171632
0.133751
0.0954476
0.0565139
0.0185261
57.1942
57.2031
57.2237
57.2568
57.3022
57.3592
57.4261
57.5003
57.578
57.6478
57.9246
55.9329
56.6474
0.712253
0.507203
0.352529
0.315208
0.280557
0.244819
0.208255
0.171035
0.133287
0.0951173
0.0563166
0.0184606
57.1898
57.1991
57.22
57.2533
57.299
57.3563
57.4239
57.4993
57.5789
57.6517
57.9157
55.9551
56.6615
0.711272
0.505695
0.351124
0.313819
0.279285
0.243698
0.207301
0.170252
0.132678
0.0946838
0.0560578
0.0183747
57.185
57.1946
57.2157
57.2491
57.295
57.3527
57.4212
57.498
57.5797
57.656
57.9047
55.9839
56.6798
0.709852
0.503709
0.349356
0.312119
0.277732
0.242327
0.206131
0.169292
0.131932
0.0941526
0.0557408
0.0182697
57.1798
57.1895
57.2107
57.2442
57.2902
57.3484
57.4178
57.4961
57.5802
57.6603
57.8919
56.0201
56.7028
0.708019
0.501283
0.347249
0.310123
0.275912
0.240721
0.20476
0.168167
0.131058
0.0935304
0.0553694
0.0181467
57.1742
57.184
57.2052
57.2387
57.2849
57.3435
57.4138
57.4937
57.5803
57.6643
57.8781
56.0639
56.7305
0.705829
0.498472
0.344831
0.307851
0.273847
0.238901
0.203206
0.166893
0.130068
0.0928256
0.0549488
0.0180075
57.1683
57.178
57.1992
57.2327
57.2789
57.3379
57.4092
57.4908
57.58
57.6675
57.8638
56.1156
56.7632
0.703344
0.49533
0.342134
0.305332
0.271562
0.236889
0.201491
0.165486
0.128975
0.0920477
0.0544847
0.0178539
57.1621
57.1718
57.1928
57.2262
57.2724
57.3318
57.404
57.4874
57.579
57.6698
57.8498
56.1751
56.8007
0.700597
0.491908
0.339199
0.302599
0.269089
0.234713
0.199636
0.163966
0.127795
0.0912077
0.0539836
0.0176882
57.1558
57.1653
57.1862
57.2193
57.2655
57.3252
57.3983
57.4835
57.5776
57.6712
57.8368
56.2421
56.843
0.697657
0.488266
0.336067
0.29969
0.266461
0.232403
0.197669
0.162354
0.126544
0.0903178
0.0534527
0.0175125
57.1494
57.1588
57.1793
57.2122
57.2583
57.3182
57.3923
57.4792
57.5758
57.6717
57.8258
56.316
56.8896
0.694531
0.484463
0.332786
0.296648
0.263716
0.229993
0.195618
0.160675
0.125241
0.0893908
0.0528997
0.0173295
57.1429
57.1521
57.1724
57.205
57.2508
57.311
57.386
57.4747
57.5739
57.6718
57.8174
56.3957
56.94
0.691293
0.480561
0.329406
0.293518
0.260895
0.227519
0.193513
0.158952
0.123905
0.0884408
0.052333
0.0171418
57.1366
57.1456
57.1655
57.1977
57.2433
57.3037
57.3795
57.4702
57.5721
57.6719
57.8123
56.4801
56.9938
0.687986
0.47662
0.325978
0.290348
0.258041
0.225019
0.191388
0.157213
0.122557
0.0874825
0.0517611
0.0169524
57.1305
57.1393
57.1588
57.1905
57.2359
57.2963
57.373
57.4657
57.5707
57.6728
57.8109
56.5674
57.0502
0.684653
0.472698
0.322556
0.287189
0.255201
0.222532
0.189275
0.155486
0.121218
0.0865308
0.0511933
0.0167643
57.1247
57.1332
57.1523
57.1836
57.2286
57.2891
57.3667
57.4616
57.5699
57.6752
57.8131
56.6563
57.1086
0.681348
0.468856
0.319195
0.284093
0.25242
0.220099
0.187211
0.153799
0.11991
0.0856015
0.0506387
0.0165806
57.1193
57.1276
57.1462
57.177
57.2216
57.2821
57.3607
57.4578
57.57
57.6795
57.8185
56.745
57.168
0.678145
0.465153
0.315952
0.28111
0.249745
0.217762
0.185228
0.152179
0.118656
0.08471
0.0501069
0.0164045
57.1145
57.1224
57.1406
57.1708
57.215
57.2756
57.355
57.4545
57.5709
57.6856
57.8267
56.8321
57.2273
0.675051
0.461648
0.312879
0.278292
0.247223
0.215561
0.183362
0.150655
0.117476
0.0838716
0.0496069
0.016239
57.1103
57.1179
57.1356
57.1652
57.209
57.2696
57.3499
57.4518
57.5724
57.6931
57.8369
56.916
57.2852
0.672159
0.458392
0.310028
0.275689
0.244899
0.213534
0.181645
0.149254
0.116391
0.0831011
0.0491474
0.0160869
57.1068
57.114
57.1312
57.1603
57.2037
57.2643
57.3454
57.4495
57.5744
57.7014
57.8481
56.9948
57.3406
0.669496
0.455427
0.307449
0.273348
0.242816
0.21172
0.180109
0.148001
0.115421
0.0824121
0.0487365
0.0159509
57.1042
57.111
57.1275
57.1561
57.1991
57.2597
57.3416
57.4477
57.5766
57.7097
57.8592
57.0675
57.3919
0.667078
0.452787
0.305185
0.271318
0.241015
0.210151
0.178782
0.146918
0.114583
0.0818172
0.0483818
0.0158335
57.1026
57.1087
57.1246
57.1527
57.1954
57.256
57.3385
57.4464
57.5788
57.7173
57.8689
57.1322
57.438
0.664949
0.450539
0.303272
0.269639
0.239533
0.208861
0.177688
0.146025
0.113892
0.081327
0.0480896
0.0157369
57.1022
57.1073
57.1225
57.1502
57.1926
57.2532
57.3361
57.4454
57.5806
57.7237
57.8765
57.1867
57.4772
0.663672
0.44738
0.301632
0.268354
0.238402
0.207869
0.176847
0.145339
0.113362
0.0809508
0.0478656
0.0156631
57.1031
57.1066
57.1212
57.1485
57.1908
57.2513
57.3346
57.4449
57.5821
57.7284
57.8806
57.2271
57.508
0.667184
0.448987
0.301584
0.267766
0.237661
0.207195
0.176276
0.144874
0.113002
0.0806955
0.0477141
0.0156135
57.106
57.1066
57.1206
57.1478
57.1899
57.2505
57.334
57.4448
57.5831
57.7319
57.8818
57.2486
57.5289
0.667074
0.443765
0.300634
0.267008
0.237205
0.206846
0.175984
0.144637
0.112818
0.0805658
0.047638
0.0155893
57.1956
57.1994
57.2185
57.2507
57.2952
57.351
57.4163
57.4886
57.5639
57.6311
57.9154
55.9111
56.617
0.716247
0.496549
0.351801
0.314317
0.280043
0.244688
0.20845
0.171471
0.133862
0.0957128
0.0568007
0.0186755
57.191
57.1979
57.2175
57.2498
57.2944
57.3503
57.4158
57.4884
57.564
57.6313
57.9126
55.9089
56.6271
0.713599
0.500489
0.351847
0.314197
0.27975
0.244385
0.208188
0.171256
0.133694
0.0955939
0.0567288
0.0186509
57.187
57.1953
57.2154
57.248
57.2927
57.3487
57.4146
57.4877
57.5643
57.6332
57.9085
55.9187
56.6333
0.717194
0.497226
0.350271
0.313262
0.279036
0.243777
0.20767
0.170831
0.133364
0.0953593
0.0565886
0.0186041
57.1828
57.1919
57.2125
57.2452
57.29
57.3463
57.4127
57.4866
57.5645
57.6357
57.901
55.935
56.6434
0.718557
0.496885
0.34919
0.312109
0.278002
0.242874
0.2069
0.1702
0.132875
0.0950117
0.0563813
0.0185353
57.1783
57.1879
57.2087
57.2415
57.2865
57.3431
57.41
57.4849
57.5645
57.6385
57.8906
55.9581
56.6576
0.717533
0.495251
0.347664
0.310614
0.276642
0.24168
0.205887
0.169372
0.132233
0.0945553
0.0561093
0.0184453
57.1734
57.1832
57.2042
57.2371
57.2821
57.339
57.4065
57.4826
57.5641
57.6413
57.8775
55.9883
56.6761
0.716001
0.493098
0.345753
0.308787
0.274981
0.24022
0.204645
0.168355
0.131445
0.0939956
0.055776
0.0183351
57.168
57.178
57.199
57.2319
57.277
57.3341
57.4023
57.4796
57.5632
57.6436
57.8622
56.0262
56.6991
0.714031
0.490475
0.343476
0.306641
0.273034
0.238509
0.203189
0.167164
0.130522
0.0933398
0.0553854
0.0182061
57.1623
57.1723
57.1933
57.2261
57.2711
57.3284
57.3973
57.4759
57.5615
57.6451
57.8453
56.0724
56.7269
0.711688
0.487442
0.340862
0.304198
0.270823
0.236567
0.201538
0.165814
0.129475
0.0925963
0.0549427
0.0180599
57.1563
57.1662
57.187
57.2196
57.2646
57.322
57.3915
57.4714
57.5589
57.6452
57.8275
56.1268
56.7594
0.709046
0.484055
0.337948
0.301488
0.268375
0.23442
0.199712
0.164322
0.128319
0.0917752
0.0544539
0.0178985
57.1499
57.1597
57.1803
57.2127
57.2575
57.315
57.3851
57.4662
57.5555
57.6438
57.8094
56.1894
56.7963
0.706131
0.480367
0.334775
0.298545
0.265723
0.232096
0.197738
0.162708
0.127069
0.0908878
0.0539255
0.0177241
57.1434
57.153
57.1734
57.2054
57.2499
57.3074
57.3779
57.4603
57.5513
57.641
57.7919
56.2598
56.8372
0.702971
0.476437
0.331389
0.295413
0.262904
0.229627
0.195642
0.160995
0.125743
0.0899465
0.0533651
0.017539
57.1368
57.1462
57.1662
57.1978
57.2419
57.2993
57.3703
57.4538
57.5464
57.6369
57.7758
56.3371
56.8814
0.699619
0.472329
0.32784
0.292135
0.259957
0.227049
0.193454
0.159209
0.124361
0.0889651
0.0527807
0.0173459
57.1302
57.1394
57.159
57.19
57.2337
57.2909
57.3623
57.4469
57.5413
57.6322
57.762
56.4201
56.9284
0.696139
0.468111
0.324182
0.28876
0.256927
0.2244
0.191208
0.157375
0.122942
0.0879582
0.052181
0.0171477
57.1237
57.1326
57.1517
57.1822
57.2254
57.2823
57.354
57.4398
57.5361
57.6277
57.7512
56.5071
56.9774
0.69258
0.46385
0.32047
0.28534
0.253859
0.22172
0.188937
0.155523
0.121509
0.0869414
0.0515753
0.0169475
57.1174
57.126
57.1446
57.1745
57.217
57.2737
57.3456
57.4328
57.5314
57.6244
57.7439
56.5962
57.0277
0.68898
0.459609
0.316764
0.281931
0.250804
0.219053
0.186679
0.153681
0.120084
0.0859308
0.0509734
0.0167485
57.1114
57.1197
57.1378
57.167
57.2089
57.2652
57.3374
57.426
57.5273
57.6231
57.7403
56.6858
57.0787
0.685424
0.455455
0.313123
0.278586
0.24781
0.216443
0.184469
0.15188
0.118692
0.0849431
0.0503851
0.0165541
57.1058
57.1139
57.1314
57.1599
57.2011
57.2569
57.3294
57.4196
57.5241
57.6241
57.7406
56.7739
57.1299
0.68194
0.451452
0.309607
0.275364
0.244929
0.213933
0.182346
0.15015
0.117355
0.0839949
0.0498204
0.0163675
57.1008
57.1085
57.1254
57.1532
57.1937
57.2492
57.3219
57.4137
57.5218
57.6272
57.7443
56.8595
57.1805
0.678611
0.447665
0.306276
0.272318
0.242211
0.211567
0.180346
0.148521
0.116096
0.0831026
0.0492891
0.0161919
57.0964
57.1037
57.1201
57.1472
57.187
57.242
57.315
57.4084
57.5203
57.6317
57.7507
56.9419
57.2296
0.675483
0.444153
0.303186
0.269503
0.239705
0.209388
0.178505
0.147022
0.114938
0.0822818
0.0488004
0.0160304
57.0928
57.0997
57.1154
57.1418
57.181
57.2356
57.3088
57.4037
57.5193
57.637
57.7586
57.0189
57.2759
0.672602
0.44096
0.30039
0.266972
0.237457
0.207435
0.176857
0.14568
0.113902
0.0815475
0.0483631
0.0158858
57.0901
57.0965
57.1115
57.1372
57.1758
57.23
57.3035
57.3998
57.5188
57.6425
57.7666
57.0891
57.3188
0.669996
0.438121
0.297936
0.264775
0.235512
0.205747
0.175431
0.14452
0.113007
0.080913
0.0479853
0.015761
57.0884
57.0941
57.1084
57.1335
57.1716
57.2255
57.2991
57.3966
57.5185
57.6475
57.7737
57.1519
57.3573
0.667703
0.435693
0.295866
0.26296
0.233912
0.204357
0.174256
0.143564
0.112268
0.08039
0.047674
0.0156583
57.0879
57.0925
57.1062
57.1308
57.1684
57.222
57.2958
57.3941
57.5184
57.6516
57.7792
57.2054
57.3906
0.666249
0.432464
0.294114
0.26157
0.232688
0.203287
0.173352
0.142829
0.111701
0.0799884
0.0474353
0.0155797
57.0888
57.0918
57.1047
57.1289
57.1663
57.2197
57.2936
57.3926
57.5184
57.6547
57.7811
57.2457
57.4176
0.669676
0.433913
0.293962
0.260894
0.231883
0.202561
0.172738
0.14233
0.111316
0.0797158
0.0472737
0.0155269
57.0916
57.0918
57.1041
57.1281
57.1653
57.2187
57.2926
57.392
57.5186
57.6572
57.7788
57.2699
57.4364
0.669482
0.428739
0.292945
0.260102
0.231396
0.202185
0.172425
0.142075
0.11112
0.0795773
0.0471925
0.015501
57.1822
57.1862
57.205
57.2368
57.2806
57.3357
57.4006
57.4727
57.5485
57.6174
57.8884
55.9129
56.6117
0.724384
0.484049
0.347642
0.310563
0.277008
0.242416
0.206899
0.170548
0.13344
0.0956467
0.056921
0.0187821
57.1777
57.1846
57.204
57.2358
57.2797
57.3349
57.3999
57.4723
57.5484
57.6174
57.8854
55.9108
56.622
0.72171
0.487902
0.347679
0.310406
0.276685
0.242089
0.206618
0.170318
0.133262
0.0955205
0.0568449
0.0187561
57.1736
57.182
57.2019
57.2339
57.2778
57.3331
57.3984
57.4712
57.5482
57.6186
57.8805
55.9211
56.6282
0.72554
0.484631
0.346081
0.309424
0.275917
0.241436
0.206063
0.169864
0.132911
0.0952713
0.0566963
0.0187066
57.1693
57.1785
57.1988
57.2309
57.2749
57.3304
57.3959
57.4695
57.5476
57.6201
57.8716
55.9381
56.6384
0.726504
0.484064
0.344869
0.308172
0.274801
0.240464
0.205237
0.16919
0.13239
0.0949019
0.0564766
0.0186339
57.1647
57.1743
57.1949
57.227
57.2711
57.3266
57.3926
57.4669
57.5464
57.6214
57.8592
55.9623
56.6527
0.725417
0.482267
0.343189
0.306545
0.27333
0.239179
0.204151
0.168304
0.131705
0.0944166
0.0561881
0.0185387
57.1597
57.1695
57.1901
57.2223
57.2663
57.3219
57.3883
57.4634
57.5445
57.6223
57.8436
55.994
56.6712
0.723763
0.479899
0.341089
0.304556
0.271533
0.237606
0.202818
0.167217
0.130865
0.0938212
0.0558343
0.0184221
57.1542
57.1641
57.1847
57.2167
57.2606
57.3163
57.383
57.4591
57.5416
57.622
57.8252
56.0341
56.6943
0.721633
0.477017
0.338591
0.302218
0.269423
0.23576
0.201254
0.165943
0.12988
0.093123
0.0554196
0.0182855
57.1483
57.1582
57.1787
57.2105
57.2541
57.3098
57.3768
57.4536
57.5376
57.6201
57.8045
56.0829
56.7218
0.719106
0.47369
0.335723
0.299555
0.267026
0.233665
0.199479
0.164496
0.128762
0.092331
0.0549491
0.0181306
57.1421
57.1518
57.1721
57.2036
57.2469
57.3024
57.3696
57.4472
57.5323
57.6162
57.7821
56.1405
56.7536
0.716235
0.469978
0.332527
0.296599
0.26437
0.231346
0.197516
0.162895
0.127526
0.0914554
0.054429
0.0179593
57.1355
57.1451
57.1651
57.1962
57.2391
57.2942
57.3616
57.4397
57.5257
57.6101
57.7588
56.2068
56.7888
0.713058
0.465939
0.329046
0.293388
0.261491
0.228833
0.195389
0.161163
0.126188
0.0905079
0.0538662
0.0177739
57.1288
57.1382
57.1578
57.1883
57.2306
57.2854
57.3526
57.4312
57.518
57.6019
57.7353
56.281
56.8268
0.709636
0.461635
0.325331
0.289968
0.258427
0.226161
0.193129
0.159323
0.124767
0.0895018
0.0532684
0.0175769
57.122
57.1311
57.1502
57.1801
57.2218
57.276
57.343
57.422
57.5093
57.592
57.7125
56.3621
56.8663
0.705986
0.457136
0.321436
0.286387
0.255222
0.223369
0.190768
0.157401
0.123284
0.0884514
0.0526443
0.0173711
57.1151
57.124
57.1425