/*--------------------------------*- C++ -*----------------------------------*\
| =========                 |                                                 |
| \\      /  F ield         | OpenFOAM: The Open Source CFD Toolbox           |
|  \\    /   O peration     | Version:  2306                                  |
|   \\  /    A nd           | Website:  www.openfoam.com                      |
|    \\/     M anipulation  |                                                 |
\*---------------------------------------------------------------------------*/
FoamFile
{
    version     2.0;
    format      ascii;
    arch        "LSB;label=32;scalar=64";
    class       volScalarField;
    location    "4.1";
    object      p;
}
// * * * * * * * * * * * * * * * * * * * * * * * * * * * * * * * * * * * * * //

dimensions      [0 2 -2 0 0 0 0];

internalField   nonuniform List<scalar> 
288632
(
64.2311
64.2228
64.2348
64.2591
64.2928
64.333
64.3855
64.4245
64.4967
64.5161
64.5984
64.6112
64.6444
-2.11258
-1.99261
-2.00654
-1.74081
-1.65148
-1.41976
-1.2257
-1.01177
-0.790739
-0.566296
-0.340349
-0.113622
64.2242
64.2213
64.2342
64.2587
64.2925
64.3328
64.3854
64.4248
64.497
64.5169
64.5986
64.6112
64.6451
-2.11329
-1.99349
-2.00805
-1.74199
-1.65266
-1.42085
-1.2266
-1.01252
-0.791331
-0.566723
-0.340606
-0.113709
64.2222
64.22
64.2332
64.2577
64.2916
64.3322
64.3849
64.4248
64.4972
64.5184
64.5997
64.6125
64.6472
-2.11577
-1.99648
-2.01107
-1.74462
-1.65516
-1.42302
-1.22847
-1.01406
-0.792545
-0.567594
-0.34113
-0.113885
64.2186
64.2177
64.2315
64.2562
64.2903
64.3311
64.3841
64.4247
64.4974
64.5203
64.601
64.615
64.65
-2.11994
-2.00079
-2.01556
-1.74855
-1.65888
-1.42624
-1.23126
-1.01638
-0.794358
-0.568897
-0.341915
-0.114147
64.2156
64.2153
64.2294
64.2544
64.2886
64.3297
64.3829
64.4246
64.4977
64.5227
64.6029
64.6183
64.6536
-2.12569
-2.00666
-2.02144
-1.75375
-1.66379
-1.43048
-1.23493
-1.01942
-0.796748
-0.570614
-0.34295
-0.114493
64.2126
64.2127
64.227
64.2521
64.2866
64.328
64.3815
64.4243
64.498
64.5254
64.6054
64.6224
64.6581
-2.1329
-2.01382
-2.02862
-1.76013
-1.6698
-1.43567
-1.23944
-1.02316
-0.799681
-0.572722
-0.34422
-0.114919
64.2096
64.2098
64.2243
64.2495
64.2842
64.326
64.3798
64.4239
64.4983
64.5286
64.6086
64.6273
64.6636
-2.14144
-2.02226
-2.03699
-1.7676
-1.67683
-1.44173
-1.24471
-1.02754
-0.803117
-0.575192
-0.345709
-0.115417
64.2065
64.2069
64.2214
64.2467
64.2815
64.3236
64.3779
64.4235
64.4988
64.5322
64.6124
64.6333
64.6701
-2.15117
-2.03177
-2.04642
-1.77603
-1.68476
-1.44859
-1.25067
-1.03249
-0.807007
-0.577989
-0.347396
-0.115982
64.2033
64.2037
64.2183
64.2436
64.2785
64.3211
64.3758
64.423
64.4994
64.5363
64.6171
64.6403
64.6778
-2.16191
-2.04223
-2.05675
-1.7853
-1.69348
-1.45614
-1.25724
-1.03795
-0.811294
-0.581074
-0.349256
-0.116605
64.2001
64.2005
64.215
64.2403
64.2754
64.3183
64.3735
64.4224
64.5002
64.5408
64.6226
64.6484
64.6868
-2.17349
-2.05344
-2.06782
-1.79526
-1.70285
-1.46425
-1.26431
-1.04383
-0.815917
-0.584401
-0.351263
-0.117277
64.1969
64.1973
64.2117
64.237
64.2721
64.3154
64.3712
64.4219
64.5012
64.5458
64.6292
64.6578
64.6972
-2.1857
-2.06524
-2.07945
-1.80575
-1.71272
-1.47282
-1.27177
-1.05005
-0.820806
-0.587921
-0.353388
-0.117989
64.1937
64.194
64.2083
64.2335
64.2687
64.3124
64.3688
64.4215
64.5024
64.5514
64.6368
64.6685
64.7092
-2.19835
-2.07742
-2.09146
-1.81661
-1.72294
-1.4817
-1.27952
-1.0565
-0.825886
-0.591581
-0.355598
-0.118729
64.1906
64.1908
64.205
64.2301
64.2653
64.3094
64.3664
64.4212
64.5039
64.5576
64.6455
64.6806
64.723
-2.21122
-2.08978
-2.10365
-1.82765
-1.73334
-1.49076
-1.28742
-1.06309
-0.831079
-0.595325
-0.357858
-0.119487
64.1876
64.1877
64.2017
64.2267
64.2619
64.3063
64.3641
64.421
64.5057
64.5644
64.6555
64.6942
64.7385
-2.22412
-2.10213
-2.11583
-1.83871
-1.74377
-1.49984
-1.29536
-1.06972
-0.836304
-0.599092
-0.360134
-0.120251
64.1848
64.1848
64.1985
64.2234
64.2586
64.3034
64.3619
64.421
64.5078
64.5717
64.6666
64.7092
64.7557
-2.23683
-2.11427
-2.1278
-1.8496
-1.75405
-1.50881
-1.30321
-1.07628
-0.841475
-0.602823
-0.362389
-0.121008
64.1822
64.182
64.1956
64.2203
64.2554
64.3005
64.3599
64.4211
64.5103
64.5795
64.6788
64.7255
64.7744
-2.24915
-2.126
-2.13937
-1.86015
-1.76402
-1.51752
-1.31084
-1.08266
-0.846509
-0.606457
-0.364586
-0.121745
64.1798
64.1795
64.1929
64.2174
64.2525
64.2979
64.358
64.4215
64.513
64.5876
64.6917
64.7427
64.7945
-2.26089
-2.13715
-2.15036
-1.87019
-1.77352
-1.52583
-1.31812
-1.08875
-0.851322
-0.609934
-0.366689
-0.122451
64.1779
64.1773
64.1904
64.2147
64.2497
64.2955
64.3564
64.422
64.5158
64.5959
64.7052
64.7605
64.8155
-2.27187
-2.14754
-2.16059
-1.87957
-1.78238
-1.5336
-1.32494
-1.09446
-0.855835
-0.613194
-0.368662
-0.123114
64.1763
64.1755
64.1883
64.2123
64.2473
64.2933
64.3549
64.4226
64.5188
64.604
64.7187
64.7784
64.8367
-2.28193
-2.15703
-2.16991
-1.88814
-1.79048
-1.54071
-1.33118
-1.09969
-0.859971
-0.616184
-0.370472
-0.123722
64.1752
64.174
64.1864
64.2103
64.2452
64.2914
64.3537
64.4234
64.5217
64.6117
64.7318
64.7958
64.8575
-2.29092
-2.16545
-2.17816
-1.89575
-1.79768
-1.54703
-1.33674
-1.10435
-0.863659
-0.618852
-0.372086
-0.124264
64.1747
64.173
64.185
64.2086
64.2434
64.2899
64.3527
64.4241
64.5244
64.6187
64.7439
64.812
64.8771
-2.2987
-2.17272
-2.18523
-1.90231
-1.80387
-1.55247
-1.34152
-1.10837
-0.866837
-0.62115
-0.373478
-0.124732
64.1745
64.1723
64.1838
64.2072
64.242
64.2886
64.352
64.4248
64.5268
64.6247
64.7543
64.8262
64.8944
-2.30519
-2.17868
-2.191
-1.90768
-1.80894
-1.55693
-1.34545
-1.11167
-0.869449
-0.62304
-0.374623
-0.125117
64.1765
64.1722
64.183
64.2062
64.2409
64.2877
64.3514
64.4254
64.5287
64.6295
64.7627
64.8378
64.9087
-2.31029
-2.18337
-2.1954
-1.91183
-1.81283
-1.56035
-1.34846
-1.11419
-0.871451
-0.624489
-0.3755
-0.125411
64.1763
64.1718
64.1824
64.2056
64.2402
64.287
64.351
64.4259
64.53
64.6329
64.7683
64.8463
64.9192
-2.31392
-2.18644
-2.19835
-1.91463
-1.81546
-1.56264
-1.3505
-1.11591
-0.872806
-0.625469
-0.376093
-0.12561
64.1824
64.1725
64.1823
64.2054
64.2399
64.2868
64.3509
64.4262
64.5308
64.6347
64.7716
64.8504
64.9254
-2.31599
-2.18855
-2.19983
-1.91615
-1.81684
-1.56378
-1.35154
-1.11678
-0.873496
-0.625968
-0.376394
-0.12571
64.2226
64.2195
64.2324
64.2567
64.2904
64.3306
64.383
64.4221
64.4941
64.5138
64.5953
64.6086
64.643
-2.11895
-1.99968
-2.01334
-1.74615
-1.65554
-1.42302
-1.22774
-1.01298
-0.791395
-0.566586
-0.340438
-0.113624
64.2157
64.2178
64.2319
64.2563
64.29
64.3303
64.3829
64.4223
64.4943
64.5155
64.5935
64.6086
64.644
-2.11963
-2.00059
-2.01489
-1.74735
-1.65675
-1.42413
-1.22866
-1.01374
-0.791997
-0.567019
-0.340699
-0.113712
64.2138
64.2164
64.2308
64.2553
64.2892
64.3297
64.3824
64.4223
64.4945
64.517
64.5942
64.6099
64.6462
-2.12214
-2.00364
-2.01797
-1.75004
-1.65929
-1.42633
-1.23056
-1.01531
-0.793228
-0.567903
-0.341231
-0.11389
64.2104
64.2141
64.2291
64.2538
64.2879
64.3286
64.3815
64.4222
64.4946
64.5189
64.5952
64.6123
64.6491
-2.12637
-2.00803
-2.02254
-1.75403
-1.66307
-1.42961
-1.23339
-1.01765
-0.795069
-0.569225
-0.342027
-0.114157
64.2075
64.2117
64.227
64.2519
64.2862
64.3272
64.3803
64.4219
64.4948
64.5212
64.5968
64.6154
64.6527
-2.13221
-2.014
-2.02854
-1.75933
-1.66807
-1.43391
-1.23712
-1.02075
-0.797494
-0.570967
-0.343077
-0.114508
64.2044
64.2092
64.2245
64.2496
64.284
64.3254
64.3788
64.4216
64.4949
64.5238
64.5992
64.6195
64.6571
-2.13952
-2.0213
-2.03584
-1.76581
-1.67418
-1.43918
-1.2417
-1.02454
-0.800471
-0.573106
-0.344366
-0.114939
64.2013
64.2064
64.2218
64.247
64.2816
64.3233
64.377
64.421
64.4951
64.5268
64.6021
64.6244
64.6625
-2.14819
-2.0299
-2.04437
-1.77341
-1.68132
-1.44535
-1.24705
-1.02899
-0.803959
-0.575613
-0.345877
-0.115445
64.1981
64.2034
64.2189
64.2441
64.2788
64.3209
64.3749
64.4204
64.4954
64.5301
64.6058
64.6303
64.6689
-2.15805
-2.03957
-2.05397
-1.782
-1.68939
-1.45232
-1.25311
-1.03402
-0.807908
-0.578453
-0.347589
-0.116018
64.195
64.2003
64.2157
64.241
64.2758
64.3182
64.3727
64.4197
64.4958
64.5338
64.6101
64.6371
64.6765
-2.16894
-2.05022
-2.06449
-1.79143
-1.69826
-1.46
-1.25978
-1.03957
-0.812264
-0.581586
-0.349478
-0.116651
64.1917
64.1971
64.2124
64.2377
64.2726
64.3153
64.3703
64.419
64.4963
64.5379
64.6153
64.645
64.6853
-2.18068
-2.06163
-2.07576
-1.80157
-1.70779
-1.46825
-1.26697
-1.04554
-0.816961
-0.584966
-0.351518
-0.117334
64.1885
64.1938
64.209
64.2342
64.2692
64.3123
64.3677
64.4182
64.4969
64.5424
64.6213
64.654
64.6955
-2.19306
-2.07364
-2.08761
-1.81224
-1.71784
-1.47697
-1.27456
-1.05186
-0.821931
-0.588544
-0.353677
-0.118058
64.1853
64.1905
64.2056
64.2307
64.2657
64.3091
64.3651
64.4174
64.4978
64.5475
64.6283
64.6644
64.7072
-2.20587
-2.08603
-2.09984
-1.82329
-1.72824
-1.486
-1.28244
-1.05843
-0.827097
-0.592265
-0.355924
-0.118811
64.1822
64.1873
64.2023
64.2272
64.2622
64.3059
64.3625
64.4168
64.4989
64.553
64.6363
64.6761
64.7206
-2.21892
-2.0986
-2.11225
-1.83453
-1.73883
-1.49522
-1.29049
-1.06513
-0.832379
-0.596072
-0.358223
-0.119582
64.1792
64.1842
64.1989
64.2238
64.2587
64.3027
64.36
64.4162
64.5003
64.5591
64.6454
64.6892
64.7356
-2.23199
-2.11116
-2.12465
-1.84578
-1.74945
-1.50447
-1.29857
-1.07188
-0.837695
-0.599905
-0.360539
-0.120359
64.1763
64.1812
64.1958
64.2204
64.2553
64.2996
64.3575
64.4158
64.5019
64.5656
64.6556
64.7036
64.7524
-2.24486
-2.1235
-2.13684
-1.85686
-1.75992
-1.5136
-1.30656
-1.07855
-0.842958
-0.603702
-0.362834
-0.121129
64.1737
64.1784
64.1928
64.2172
64.252
64.2966
64.3552
64.4155
64.5038
64.5725
64.6668
64.7192
64.7707
-2.25734
-2.13543
-2.14861
-1.8676
-1.77007
-1.52247
-1.31432
-1.08505
-0.848083
-0.607402
-0.36507
-0.12188
64.1714
64.1759
64.19
64.2143
64.249
64.2938
64.3531
64.4154
64.506
64.5797
64.6788
64.7359
64.7903
-2.26922
-2.14676
-2.15979
-1.87782
-1.77973
-1.53093
-1.32174
-1.09126
-0.852985
-0.610942
-0.367212
-0.122599
64.1694
64.1737
64.1875
64.2115
64.2461
64.2912
64.3512
64.4155
64.5084
64.587
64.6912
64.7531
64.8109
-2.28033
-2.15732
-2.1702
-1.88736
-1.78877
-1.53884
-1.32868
-1.09707
-0.857582
-0.614263
-0.369222
-0.123274
64.1678
64.1719
64.1853
64.2091
64.2436
64.2889
64.3495
64.4158
64.5108
64.5942
64.7037
64.7705
64.8317
-2.29051
-2.16695
-2.17968
-1.89608
-1.79702
-1.54608
-1.33504
-1.1024
-0.861796
-0.617309
-0.371065
-0.123894
64.1667
64.1704
64.1835
64.207
64.2414
64.2869
64.3481
64.4162
64.5132
64.6011
64.7158
64.7873
64.8522
-2.29959
-2.1755
-2.18807
-1.90382
-1.80435
-1.55253
-1.3407
-1.10715
-0.865554
-0.620027
-0.372711
-0.124447
64.1662
64.1693
64.182
64.2053
64.2395
64.2852
64.3469
64.4166
64.5155
64.6073
64.727
64.803
64.8714
-2.30746
-2.18288
-2.19527
-1.9105
-1.81065
-1.55807
-1.34558
-1.11124
-0.868793
-0.62237
-0.37413
-0.124924
64.1659
64.1686
64.1808
64.2039
64.238
64.2838
64.346
64.417
64.5175
64.6127
64.7367
64.8168
64.8884
-2.31402
-2.18893
-2.20113
-1.91596
-1.81581
-1.56261
-1.34958
-1.1146
-0.871455
-0.624297
-0.375297
-0.125316
64.1679
64.1685
64.18
64.2029
64.2369
64.2828
64.3453
64.4174
64.5192
64.6169
64.7444
64.8281
64.9025
-2.31917
-2.19369
-2.2056
-1.92018
-1.81977
-1.56608
-1.35264
-1.11718
-0.873495
-0.625773
-0.376191
-0.125616
64.1677
64.1681
64.1794
64.2022
64.2362
64.2821
64.3448
64.4177
64.5203
64.6199
64.7494
64.8361
64.9127
-2.32284
-2.1968
-2.2086
-1.92302
-1.82245
-1.56842
-1.35472
-1.11893
-0.874877
-0.626773
-0.376796
-0.125819
64.1738
64.1689
64.1793
64.202
64.2359
64.2818
64.3447
64.4179
64.5211
64.6216
64.7528
64.8385
64.9185
-2.32493
-2.19893
-2.21009
-1.92456
-1.82385
-1.56957
-1.35578
-1.11982
-0.875579
-0.62728
-0.377102
-0.125921
64.2169
64.2144
64.2275
64.2518
64.2853
64.3254
64.3776
64.4168
64.4885
64.509
64.5898
64.604
64.6394
-2.13356
-2.01473
-2.02666
-1.75668
-1.66337
-1.42907
-1.23146
-1.01508
-0.792437
-0.566955
-0.34047
-0.113566
64.2103
64.2127
64.227
64.2513
64.285
64.3251
64.3775
64.417
64.4887
64.5107
64.5875
64.6039
64.6405
-2.13427
-2.01569
-2.02826
-1.75793
-1.66461
-1.43021
-1.23242
-1.01587
-0.793056
-0.5674
-0.340738
-0.113656
64.2083
64.2112
64.2259
64.2503
64.2841
64.3244
64.3769
64.4169
64.4887
64.5122
64.5883
64.6051
64.6427
-2.13688
-2.01884
-2.03146
-1.76071
-1.66723
-1.43249
-1.23437
-1.01748
-0.794322
-0.568309
-0.341285
-0.113839
64.2046
64.209
64.2242
64.2488
64.2828
64.3233
64.3759
64.4167
64.4887
64.514
64.5892
64.6073
64.6456
-2.14125
-2.0234
-2.03619
-1.76484
-1.67114
-1.43586
-1.23729
-1.0199
-0.796216
-0.569668
-0.342103
-0.114113
64.2015
64.2067
64.2221
64.2469
64.281
64.3218
64.3746
64.4162
64.4887
64.516
64.5907
64.6102
64.649
-2.14728
-2.0296
-2.04241
-1.77032
-1.67631
-1.44031
-1.24114
-1.02308
-0.798711
-0.57146
-0.343182
-0.114474
64.1984
64.2041
64.2196
64.2445
64.2788
64.3199
64.3729
64.4156
64.4886
64.5183
64.5927
64.614
64.6532
-2.15484
-2.03717
-2.04999
-1.77703
-1.68262
-1.44575
-1.24585
-1.02699
-0.801776
-0.573661
-0.344508
-0.114918
64.1953
64.2013
64.2168
64.2419
64.2762
64.3176
64.3709
64.4148
64.4885
64.5209
64.5951
64.6184
64.6583
-2.1638
-2.04608
-2.05883
-1.78489
-1.69001
-1.45212
-1.25138
-1.03158
-0.80537
-0.576243
-0.346064
-0.115439
64.1922
64.1982
64.2138
64.2389
64.2733
64.315
64.3686
64.4139
64.4884
64.5237
64.5981
64.6237
64.6642
-2.17399
-2.05612
-2.06878
-1.79377
-1.69836
-1.45933
-1.25763
-1.03677
-0.809441
-0.579169
-0.347828
-0.11603
64.189
64.195
64.2106
64.2357
64.2701
64.3121
64.3661
64.4127
64.4882
64.5267
64.6016
64.6299
64.6711
-2.18523
-2.06715
-2.07969
-1.80354
-1.70753
-1.46726
-1.26452
-1.04249
-0.813933
-0.582399
-0.349776
-0.116682
64.1857
64.1918
64.2073
64.2323
64.2668
64.309
64.3633
64.4115
64.4881
64.53
64.6058
64.6369
64.6791
-2.19734
-2.07898
-2.09138
-1.81403
-1.7174
-1.4758
-1.27195
-1.04866
-0.818782
-0.585887
-0.35188
-0.117387
64.1825
64.1884
64.2039
64.2287
64.2632
64.3057
64.3604
64.4102
64.4881
64.5335
64.6105
64.6448
64.6883
-2.21011
-2.09141
-2.10366
-1.82508
-1.7278
-1.48481
-1.2798
-1.05519
-0.823914
-0.589582
-0.35411
-0.118134
64.1792
64.1851
64.2004
64.2251
64.2596
64.3023
64.3574
64.4088
64.4882
64.5374
64.6161
64.6537
64.6987
-2.22333
-2.10424
-2.11634
-1.83652
-1.73857
-1.49416
-1.28795
-1.06198
-0.829254
-0.593427
-0.356431
-0.118912
64.1761
64.1818
64.1969
64.2215
64.2558
64.2988
64.3544
64.4074
64.4884
64.5416
64.6225
64.6636
64.7105
-2.23678
-2.11726
-2.1292
-1.84816
-1.74954
-1.50371
-1.29627
-1.06892
-0.834717
-0.597363
-0.358808
-0.11971
64.173
64.1787
64.1935
64.2179
64.2521
64.2953
64.3513
64.406
64.4888
64.5461
64.6297
64.6747
64.7238
-2.25024
-2.13026
-2.14205
-1.85981
-1.76054
-1.51329
-1.30464
-1.0759
-0.840219
-0.60133
-0.361205
-0.120514
64.1701
64.1756
64.1903
64.2144
64.2485
64.2918
64.3483
64.4047
64.4894
64.5509
64.6378
64.6869
64.7386
-2.26349
-2.14302
-2.15468
-1.87128
-1.77139
-1.52275
-1.31292
-1.08282
-0.84567
-0.605261
-0.363581
-0.121311
64.1675
64.1728
64.1872
64.2111
64.245
64.2885
64.3455
64.4036
64.4902
64.556
64.6468
64.7001
64.7548
-2.27633
-2.15535
-2.16687
-1.8824
-1.78191
-1.53194
-1.32097
-1.08955
-0.85098
-0.609095
-0.365899
-0.12209
64.1651
64.1703
64.1844
64.208
64.2418
64.2853
64.3428
64.4027
64.4912
64.5614
64.6564
64.7141
64.7722
-2.28854
-2.16706
-2.17845
-1.89298
-1.79194
-1.54072
-1.32866
-1.09598
-0.856063
-0.612765
-0.368119
-0.122835
64.1631
64.168
64.1818
64.2051
64.2387
64.2824
64.3404
64.4019
64.4924
64.5669
64.6665
64.7287
64.7904
-2.29996
-2.17796
-2.18923
-1.90286
-1.8013
-1.54892
-1.33586
-1.10202
-0.860831
-0.61621
-0.370204
-0.123536
64.1615
64.1661
64.1796
64.2026
64.236
64.2797
64.3382
64.4013
64.4938
64.5723
64.6766
64.7434
64.8088
-2.31041
-2.18791
-2.19903
-1.91188
-1.80986
-1.55643
-1.34245
-1.10755
-0.865204
-0.619371
-0.372117
-0.124179
64.1603
64.1646
64.1776
64.2004
64.2336
64.2774
64.3363
64.4009
64.4952
64.5774
64.6865
64.7576
64.827
-2.31973
-2.19673
-2.20771
-1.9199
-1.81746
-1.56312
-1.34833
-1.11248
-0.869106
-0.622193
-0.373826
-0.124754
64.1598
64.1635
64.1761
64.1985
64.2316
64.2754
64.3347
64.4006
64.4965
64.5821
64.6956
64.7708
64.844
-2.32781
-2.20434
-2.21515
-1.9268
-1.82399
-1.56887
-1.35339
-1.11673
-0.872469
-0.624626
-0.3753
-0.125249
64.1595
64.1628
64.1749
64.1971
64.23
64.2738
64.3334
64.4005
64.4977
64.5861
64.7034
64.7824
64.8591
-2.33453
-2.21057
-2.22121
-1.93245
-1.82934
-1.57358
-1.35754
-1.12022
-0.875235
-0.626628
-0.376513
-0.125657
64.1615
64.1627
64.1741
64.196
64.2288
64.2727
64.3324
64.4004
64.4987
64.5893
64.7097
64.7919
64.8715
-2.33981
-2.21547
-2.22584
-1.93681
-1.83345
-1.57718
-1.36073
-1.1229
-0.877355
-0.628162
-0.377442
-0.12597
64.1613
64.1623
64.1734
64.1953
64.2279
64.2718
64.3317
64.4003
64.4994
64.5916
64.7136
64.7988
64.8804
-2.34356
-2.21868
-2.22894
-1.93975
-1.83623
-1.57961
-1.36288
-1.12471
-0.87879
-0.629201
-0.378071
-0.126181
64.1673
64.1631
64.1733
64.195
64.2276
64.2715
64.3315
64.4004
64.4999
64.593
64.716
64.8028
64.8853
-2.3457
-2.22086
-2.23048
-1.94134
-1.83767
-1.58081
-1.36398
-1.12564
-0.879519
-0.629727
-0.378389
-0.126287
64.2081
64.2068
64.2202
64.2444
64.2778
64.3175
64.3694
64.4087
64.48
64.5015
64.5812
64.597
64.6331
-2.15695
-2.03712
-2.04649
-1.77237
-1.67494
-1.43792
-1.23684
-1.01805
-0.793828
-0.56737
-0.340422
-0.113441
64.2016
64.2051
64.2196
64.2439
64.2774
64.3173
64.3692
64.4088
64.4801
64.5033
64.5785
64.5968
64.6342
-2.15771
-2.03817
-2.04818
-1.77369
-1.67625
-1.43911
-1.23783
-1.01887
-0.794473
-0.567833
-0.3407
-0.113535
64.1994
64.2037
64.2185
64.2429
64.2765
64.3165
64.3686
64.4086
64.48
64.5046
64.5792
64.5979
64.6364
-2.16047
-2.0415
-2.05154
-1.7766
-1.679
-1.44149
-1.23987
-1.02055
-0.795791
-0.568778
-0.341269
-0.113725
64.1957
64.2015
64.2168
64.2414
64.275
64.3153
64.3674
64.4082
64.4798
64.5061
64.5797
64.5998
64.639
-2.16508
-2.04632
-2.05653
-1.78095
-1.6831
-1.44503
-1.24292
-1.02307
-0.797764
-0.570194
-0.34212
-0.11401
64.1926
64.1991
64.2147
64.2394
64.2731
64.3136
64.3659
64.4075
64.4795
64.5078
64.5807
64.6024
64.6422
-2.17144
-2.05286
-2.06309
-1.7867
-1.68851
-1.44968
-1.24694
-1.02639
-0.800366
-0.57206
-0.343244
-0.114386
64.1895
64.1964
64.2122
64.2369
64.2708
64.3115
64.364
64.4066
64.479
64.5097
64.5821
64.6057
64.646
-2.1794
-2.06084
-2.07108
-1.79375
-1.69514
-1.45538
-1.25187
-1.03048
-0.803564
-0.574356
-0.344627
-0.114848
64.1864
64.1935
64.2094
64.2342
64.2681
64.309
64.3617
64.4054
64.4784
64.5116
64.5838
64.6095
64.6504
-2.18882
-2.07024
-2.0804
-1.80202
-1.70289
-1.46206
-1.25766
-1.03527
-0.807315
-0.57705
-0.34625
-0.115392
64.1832
64.1904
64.2063
64.2311
64.265
64.3062
64.3591
64.4039
64.4777
64.5136
64.5858
64.614
64.6554
-2.19953
-2.08081
-2.09089
-1.81136
-1.71166
-1.46962
-1.2642
-1.0407
-0.81157
-0.580106
-0.348092
-0.116008
64.18
64.1872
64.203
64.2277
64.2617
64.303
64.3561
64.4022
64.4768
64.5155
64.5881
64.619
64.6612
-2.21135
-2.09244
-2.10239
-1.82162
-1.7213
-1.47794
-1.27143
-1.04669
-0.816269
-0.583484
-0.350129
-0.116691
64.1767
64.1838
64.1996
64.2242
64.2581
64.2996
64.3529
64.4002
64.4758
64.5176
64.5907
64.6245
64.6677
-2.22407
-2.1049
-2.11472
-1.83266
-1.73167
-1.48691
-1.27921
-1.05315
-0.821346
-0.587134
-0.352331
-0.117428
64.1734
64.1804
64.196
64.2205
64.2543
64.2959
64.3494
64.398
64.4747
64.5195
64.5935
64.6305
64.6749
-2.23748
-2.11799
-2.12767
-1.84429
-1.74261
-1.49638
-1.28745
-1.06
-0.826726
-0.591005
-0.354666
-0.118211
64.1701
64.177
64.1924
64.2167
64.2503
64.292
64.3458
64.3956
64.4735
64.5215
64.5967
64.637
64.6828
-2.25134
-2.13149
-2.14103
-1.85632
-1.75395
-1.50622
-1.29602
-1.06713
-0.832329
-0.595038
-0.357101
-0.119028
64.1669
64.1737
64.1889
64.2129
64.2463
64.2881
64.342
64.3931
64.4724
64.5235
64.6003
64.6442
64.6917
-2.26544
-2.14518
-2.1546
-1.86856
-1.7655
-1.51626
-1.30477
-1.07443
-0.838068
-0.599172
-0.359597
-0.119865
64.1638
64.1705
64.1854
64.2091
64.2423
64.2841
64.3382
64.3906
64.4713
64.5256
64.6044
64.652
64.7016
-2.27953
-2.15884
-2.16814
-1.88082
-1.77709
-1.52635
-1.31358
-1.08177
-0.843853
-0.603341
-0.362116
-0.120711
64.1609
64.1674
64.182
64.2055
64.2384
64.2801
64.3345
64.388
64.4702
64.5277
64.6091
64.6605
64.7126
-2.2934
-2.17225
-2.18143
-1.8929
-1.78852
-1.53632
-1.32229
-1.08905
-0.84959
-0.607478
-0.364617
-0.12155
64.1582
64.1645
64.1788
64.2019
64.2346
64.2762
64.3308
64.3856
64.4693
64.53
64.6143
64.6697
64.7245
-2.30682
-2.18519
-2.19428
-1.9046
-1.79961
-1.54601
-1.33078
-1.09614
-0.855184
-0.611515
-0.367058
-0.12237
64.1558
64.1619
64.1759
64.1986
64.231
64.2725
64.3273
64.3833
64.4685
64.5324
64.62
64.6796
64.7374
-2.31958
-2.19747
-2.20646
-1.91573
-1.81018
-1.55526
-1.33889
-1.10293
-0.860542
-0.615384
-0.369399
-0.123157
64.1537
64.1596
64.1732
64.1956
64.2277
64.2691
64.3241
64.3812
64.468
64.5349
64.626
64.6898
64.7509
-2.33149
-2.20889
-2.21779
-1.92612
-1.82005
-1.56391
-1.34648
-1.1093
-0.865572
-0.619018
-0.371599
-0.123896
64.152
64.1576
64.1709
64.1929
64.2247
64.266
64.3211
64.3793
64.4676
64.5374
64.6322
64.7001
64.7646
-2.34238
-2.21931
-2.22811
-1.93561
-1.82907
-1.57183
-1.35345
-1.11514
-0.870189
-0.622355
-0.373619
-0.124576
64.1508
64.1561
64.1689
64.1906
64.222
64.2632
64.3185
64.3777
64.4673
64.5398
64.6382
64.71
64.778
-2.35208
-2.22853
-2.23723
-1.94404
-1.83709
-1.57888
-1.35965
-1.12035
-0.87431
-0.625336
-0.375425
-0.125183
64.1503
64.1549
64.1673
64.1886
64.2198
64.2609
64.3162
64.3763
64.4672
64.542
64.6437
64.7192
64.7904
-2.36047
-2.23648
-2.24504
-1.95129
-1.84398
-1.58495
-1.36499
-1.12483
-0.877864
-0.627908
-0.376983
-0.125707
64.15
64.1542
64.166
64.187
64.218
64.259
64.3144
64.3753
64.4671
64.5439
64.6483
64.727
64.8013
-2.36745
-2.24299
-2.2514
-1.95723
-1.84962
-1.58992
-1.36938
-1.12853
-0.880787
-0.630023
-0.378265
-0.126139
64.1519
64.1541
64.1651
64.1858
64.2166
64.2575
64.313
64.3744
64.4671
64.5453
64.6518
64.7333
64.81
-2.37293
-2.24809
-2.25625
-1.9618
-1.85395
-1.59373
-1.37274
-1.13135
-0.883029
-0.631646
-0.379249
-0.12647
64.1517
64.1536
64.1644
64.185
64.2157
64.2565
64.3121
64.3739
64.4671
64.5463
64.6537
64.7376
64.8161
-2.37682
-2.25143
-2.2595
-1.96489
-1.85688
-1.59629
-1.37502
-1.13327
-0.884547
-0.632745
-0.379914
-0.126694
64.1576
64.1545
64.1643
64.1848
64.2153
64.2561
64.3117
64.3737
64.4672
64.5472
64.6547
64.7394
64.8192
-2.37904
-2.25368
-2.26112
-1.96655
-1.8584
-1.59755
-1.37618
-1.13425
-0.885318
-0.633302
-0.380252
-0.126806
64.198
64.1973
64.2107
64.2347
64.2677
64.3071
64.3584
64.3978
64.4687
64.4913
64.5697
64.5873
64.624
-2.18904
-2.06721
-2.07292
-1.79319
-1.69018
-1.44941
-1.24368
-1.02173
-0.795436
-0.567728
-0.340228
-0.113226
64.1914
64.1956
64.2101
64.2342
64.2673
64.3068
64.3582
64.3979
64.4686
64.493
64.5669
64.5871
64.6251
-2.18989
-2.06837
-2.07472
-1.7946
-1.69157
-1.45068
-1.24473
-1.02259
-0.796114
-0.568213
-0.340519
-0.113324
64.1892
64.1942
64.209
64.2331
64.2663
64.3059
64.3574
64.3975
64.4684
64.4941
64.5674
64.5879
64.6271
-2.19287
-2.07194
-2.07833
-1.79771
-1.69449
-1.45321
-1.24688
-1.02436
-0.797502
-0.569208
-0.341117
-0.113523
64.1855
64.1919
64.2072
64.2315
64.2648
64.3046
64.3561
64.3969
64.4679
64.4953
64.5674
64.5895
64.6295
-2.19782
-2.07712
-2.08366
-1.80234
-1.69884
-1.45695
-1.2501
-1.02702
-0.79958
-0.570697
-0.342013
-0.113823
64.1824
64.1895
64.2051
64.2294
64.2627
64.3027
64.3544
64.3959
64.4672
64.4966
64.5679
64.5916
64.6322
-2.20463
-2.08412
-2.09068
-1.80847
-1.7046
-1.46189
-1.25436
-1.03053
-0.802324
-0.572664
-0.343196
-0.114219
64.1793
64.1867
64.2025
64.2269
64.2603
64.3004
64.3522
64.3945
64.4662
64.4978
64.5684
64.5942
64.6353
-2.21315
-2.09268
-2.09923
-1.81598
-1.71164
-1.46794
-1.25958
-1.03485
-0.805699
-0.575085
-0.344654
-0.114706
64.1762
64.1837
64.1996
64.224
64.2574
64.2976
64.3495
64.3927
64.4649
64.4988
64.5691
64.5971
64.6388
-2.22322
-2.10273
-2.10921
-1.82479
-1.7199
-1.47503
-1.26571
-1.03991
-0.809663
-0.577929
-0.346367
-0.11528
64.1729
64.1806
64.1964
64.2208
64.2541
64.2945
64.3464
64.3906
64.4634
64.4997
64.5698
64.6004
64.6425
-2.23467
-2.11405
-2.12044
-1.83475
-1.72923
-1.48306
-1.27266
-1.04566
-0.814164
-0.581161
-0.348315
-0.115932
64.1696
64.1772
64.193
64.2173
64.2505
64.2909
64.3429
64.388
64.4615
64.5002
64.5703
64.6036
64.6465
-2.24729
-2.12648
-2.13276
-1.8457
-1.7395
-1.49191
-1.28033
-1.05201
-0.819141
-0.584736
-0.35047
-0.116654
64.1663
64.1738
64.1895
64.2135
64.2466
64.287
64.339
64.3851
64.4593
64.5005
64.5705
64.6068
64.6507
-2.26087
-2.1398
-2.14595
-1.85747
-1.75056
-1.50146
-1.28861
-1.05888
-0.824526
-0.588606
-0.352804
-0.117436
64.1629
64.1704
64.1858
64.2096
64.2425
64.2829
64.3348
64.3817
64.4568
64.5002
64.5705
64.6098
64.6548
-2.27516
-2.15379
-2.15982
-1.86988
-1.76224
-1.51156
-1.29738
-1.06616
-0.830241
-0.592715
-0.355283
-0.118267
64.1596
64.1669
64.1821
64.2056
64.2382
64.2784
64.3303
64.378
64.454
64.4996
64.5703
64.6126
64.6589
-2.28993
-2.16821
-2.17412
-1.88272
-1.77434
-1.52205
-1.3065
-1.07375
-0.836201
-0.597003
-0.357871
-0.119135
64.1563
64.1635
64.1784
64.2016
64.2338
64.2739
64.3257
64.3741
64.4509
64.4984
64.5698
64.6152
64.663
-2.30492
-2.18282
-2.18864
-1.8958
-1.78669
-1.53278
-1.31584
-1.08152
-0.842313
-0.601404
-0.360529
-0.120027
64.1532
64.1601
64.1748
64.1976
64.2294
64.2692
64.3209
64.3699
64.4477
64.4969
64.5692
64.6176
64.6672
-2.3199
-2.19738
-2.20312
-1.90889
-1.79908
-1.54356
-1.32525
-1.08936
-0.848483
-0.605849
-0.363214
-0.120928
64.1502
64.1569
64.1712
64.1937
64.2251
64.2646
64.316
64.3656
64.4443
64.4951
64.5686
64.62
64.6716
-2.33462
-2.21167
-2.21734
-1.92178
-1.81131
-1.55422
-1.33457
-1.09714
-0.854608
-0.610265
-0.365884
-0.121825
64.1474
64.154
64.1679
64.1899
64.2209
64.2601
64.3113
64.3614
64.441
64.4932
64.568
64.6225
64.6763
-2.34885
-2.22545
-2.23106
-1.93428
-1.82318
-1.56459
-1.34364
-1.10473
-0.860589
-0.614579
-0.368493
-0.122702
64.145
64.1513
64.1648
64.1864
64.2169
64.2557
64.3067
64.3572
64.4377
64.4913
64.5677
64.6251
64.6813
-2.36236
-2.2385
-2.24408
-1.94616
-1.83449
-1.57449
-1.35233
-1.11199
-0.866323
-0.618719
-0.370998
-0.123544
64.1428
64.1489
64.162
64.1832
64.2131
64.2516
64.3024
64.3533
64.4346
64.4894
64.5675
64.6279
64.6866
-2.37495
-2.25063
-2.25617
-1.95725
-1.84506
-1.58376
-1.36047
-1.11882
-0.871712
-0.622612
-0.373354
-0.124337
64.1411
64.1469
64.1596
64.1802
64.2098
64.2479
64.2984
64.3497
64.4318
64.4877
64.5676
64.6306
64.6919
-2.38645
-2.26168
-2.26716
-1.96737
-1.85471
-1.59225
-1.36793
-1.12508
-0.876661
-0.626189
-0.375521
-0.125066
64.1399
64.1453
64.1575
64.1777
64.2068
64.2445
64.2948
64.3464
64.4292
64.4861
64.5676
64.633
64.6968
-2.39668
-2.27145
-2.27688
-1.97636
-1.8633
-1.5998
-1.37459
-1.13066
-0.881082
-0.629387
-0.377459
-0.125718
64.1393
64.1441
64.1558
64.1755
64.2042
64.2416
64.2917
64.3436
64.4269
64.4846
64.5675
64.635
64.7009
-2.40553
-2.27987
-2.2852
-1.98409
-1.87067
-1.60631
-1.38032
-1.13548
-0.884897
-0.632147
-0.379132
-0.126281
64.1389
64.1433
64.1544
64.1738
64.2022
64.2393
64.2892
64.3413
64.425
64.4833
64.567
64.6363
64.7039
-2.41286
-2.28674
-2.29197
-1.99042
-1.87671
-1.61164
-1.38503
-1.13945
-0.888037
-0.63442
-0.38051
-0.126746
64.1408
64.1431
64.1535
64.1725
64.2006
64.2375
64.2873
64.3395
64.4235
64.4822
64.5663
64.6367
64.7056
-2.41861
-2.29212
-2.29713
-1.99529
-1.88135
-1.61571
-1.38864
-1.14249
-0.890445
-0.636164
-0.381567
-0.127102
64.1406
64.1427
64.1528
64.1717
64.1996
64.2363
64.2859
64.3383
64.4224
64.4814
64.565
64.6364
64.7061
-2.4227
-2.29565
-2.30059
-1.99858
-1.88448
-1.61846
-1.39108
-1.14455
-0.892077
-0.637345
-0.382284
-0.127343
64.1465
64.1435
64.1526
64.1714
64.1991
64.2358
64.2853
64.3377
64.4217
64.4814
64.5639
64.6312
64.7057
-2.42501
-2.29799
-2.30231
-2.00033
-1.88611
-1.61981
-1.39232
-1.1456
-0.892905
-0.637945
-0.382648
-0.127464
64.1862
64.1857
64.1991
64.2227
64.2552
64.2941
64.3448
64.3842
64.4544
64.4783
64.5554
64.575
64.6121
-2.23006
-2.10509
-2.10601
-1.81909
-1.70895
-1.46335
-1.25175
-1.02592
-0.797083
-0.56789
-0.339802
-0.112891
64.1796
64.1841
64.1984
64.2221
64.2547
64.2938
64.3445
64.3842
64.4543
64.4799
64.5525
64.5746
64.6132
-2.23102
-2.1064
-2.10796
-1.82062
-1.71045
-1.4647
-1.25286
-1.02684
-0.797803
-0.568404
-0.340109
-0.112993
64.1774
64.1826
64.1973
64.221
64.2537
64.2928
64.3436
64.3836
64.4538
64.4807
64.5527
64.5752
64.6151
-2.23429
-2.11029
-2.11186
-1.82397
-1.71358
-1.4674
-1.25516
-1.02873
-0.799278
-0.56946
-0.340742
-0.113204
64.1737
64.1803
64.1955
64.2193
64.252
64.2913
64.3421
64.3827
64.453
64.4816
64.5522
64.5764
64.617
-2.23969
-2.11592
-2.11765
-1.82896
-1.71826
-1.47141
-1.2586
-1.03156
-0.801488
-0.571042
-0.341693
-0.113522
64.1706
64.1778
64.1933
64.2172
64.2499
64.2892
64.34
64.3813
64.4518
64.4822
64.5519
64.5779
64.6191
-2.24709
-2.12353
-2.12526
-1.83557
-1.72444
-1.4767
-1.26315
-1.0353
-0.804408
-0.573133
-0.342952
-0.113943
64.1674
64.175
64.1906
64.2145
64.2472
64.2866
64.3374
64.3793
64.4502
64.4826
64.5515
64.5796
64.6213
-2.25634
-2.13282
-2.13453
-1.84368
-1.73202
-1.48319
-1.26874
-1.03991
-0.808005
-0.575711
-0.344503
-0.114462
64.1642
64.1719
64.1876
64.2115
64.2441
64.2835
64.3343
64.3769
64.4481
64.4826
64.5509
64.5814
64.6235
-2.26727
-2.14372
-2.14536
-1.85318
-1.74091
-1.49081
-1.2753
-1.04532
-0.812235
-0.578744
-0.346329
-0.115073
64.1609
64.1687
64.1843
64.2081
64.2405
64.2799
64.3306
64.3739
64.4455
64.482
64.5497
64.5828
64.6256
-2.27969
-2.156
-2.15755
-1.86392
-1.75096
-1.49945
-1.28275
-1.05147
-0.817046
-0.582195
-0.348408
-0.115769
64.1576
64.1653
64.1808
64.2044
64.2366
64.2759
64.3264
64.3704
64.4424
64.4808
64.5479
64.5836
64.6271
-2.29336
-2.16947
-2.17091
-1.87574
-1.76204
-1.50898
-1.29099
-1.05828
-0.822376
-0.58602
-0.350713
-0.116541
64.1542
64.1618
64.1771
64.2004
64.2324
64.2715
64.3218
64.3662
64.4387
64.4786
64.5451
64.5836
64.6279
-2.30805
-2.1839
-2.18523
-1.88846
-1.77398
-1.51928
-1.2999
-1.06565
-0.828151
-0.590167
-0.353214
-0.117379
64.1508
64.1582
64.1733
64.1963
64.2279
64.2667
64.3167
64.3614
64.4344
64.4755
64.5413
64.5824
64.6275
-2.3235
-2.19904
-2.20028
-1.90187
-1.7866
-1.53017
-1.30935
-1.07348
-0.83429
-0.594579
-0.355875
-0.118271
64.1473
64.1546
64.1694
64.192
64.2232
64.2617
64.3112
64.3561
64.4294
64.4712