/*--------------------------------*- C++ -*----------------------------------*\
| =========                 |                                                 |
| \\      /  F ield         | OpenFOAM: The Open Source CFD Toolbox           |
|  \\    /   O peration     | Version:  2306                                  |
|   \\  /    A nd           | Website:  www.openfoam.com                      |
|    \\/     M anipulation  |                                                 |
\*---------------------------------------------------------------------------*/
FoamFile
{
    version     2.0;
    format      ascii;
    arch        "LSB;label=32;scalar=64";
    class       volScalarField;
    location    "4.6";
    object      p;
}
// * * * * * * * * * * * * * * * * * * * * * * * * * * * * * * * * * * * * * //

dimensions      [0 2 -2 0 0 0 0];

internalField   nonuniform List<scalar> 
288632
(
68.1754
68.1671
68.1798
68.2053
68.2402
68.2814
68.336
68.379
68.4466
68.476
68.5495
68.5686
68.5986
-2.57482
-2.43879
-2.42236
-2.1307
-2.00494
-1.72799
-1.49371
-1.23374
-0.964551
-0.690983
-0.41532
-0.13864
68.1685
68.1657
68.1793
68.2049
68.24
68.2814
68.3361
68.3794
68.4472
68.477
68.5501
68.5688
68.5995
-2.57549
-2.43958
-2.42373
-2.13178
-2.00604
-1.72902
-1.49458
-1.23448
-0.965134
-0.691405
-0.415575
-0.138727
68.1666
68.1646
68.1784
68.2041
68.2394
68.281
68.3359
68.3797
68.4478
68.4789
68.5518
68.5706
68.602
-2.57776
-2.44233
-2.42652
-2.13424
-2.0084
-1.73109
-1.49639
-1.23599
-0.966335
-0.692274
-0.416101
-0.138903
68.163
68.1625
68.177
68.2029
68.2384
68.2804
68.3355
68.3801
68.4487
68.4814
68.554
68.5738
68.6055
-2.58154
-2.44625
-2.43067
-2.13788
-2.01193
-1.73416
-1.49909
-1.23826
-0.968131
-0.693575
-0.416889
-0.139168
68.1604
68.1604
68.1753
68.2014
68.2371
68.2795
68.3349
68.3806
68.4498
68.4845
68.557
68.578
68.6101
-2.58674
-2.45158
-2.43613
-2.1427
-2.0166
-1.73819
-1.50266
-1.24125
-0.970499
-0.69529
-0.417928
-0.139518
68.1578
68.1581
68.1733
68.1996
68.2356
68.2784
68.3342
68.3811
68.4512
68.4883
68.5609
68.5833
68.6158
-2.59325
-2.45807
-2.44276
-2.1486
-2.0223
-1.74313
-1.50703
-1.24492
-0.973406
-0.697395
-0.419204
-0.139947
68.1551
68.1557
68.171
68.1975
68.2338
68.2771
68.3334
68.3816
68.4528
68.4926
68.5657
68.5898
68.6228
-2.60093
-2.46569
-2.45049
-2.1555
-2.02896
-1.7489
-1.51214
-1.24921
-0.97681
-0.699863
-0.4207
-0.140451
68.1524
68.1531
68.1686
68.1953
68.2318
68.2756
68.3324
68.3822
68.4547
68.4976
68.5713
68.5974
68.631
-2.60965
-2.47425
-2.45917
-2.16328
-2.03648
-1.75542
-1.51792
-1.25407
-0.980663
-0.702657
-0.422396
-0.141021
68.1497
68.1505
68.1661
68.1929
68.2296
68.274
68.3314
68.3828
68.4568
68.5032
68.578
68.6062
68.6406
-2.61925
-2.48364
-2.46866
-2.17181
-2.04472
-1.76258
-1.52428
-1.25941
-0.984909
-0.705738
-0.424265
-0.141651
68.147
68.1479
68.1634
68.1903
68.2273
68.2723
68.3303
68.3836
68.4593
68.5094
68.5858
68.6163
68.6517
-2.62955
-2.49367
-2.4788
-2.18095
-2.05356
-1.77027
-1.53112
-1.26517
-0.989485
-0.70906
-0.426282
-0.142331
68.1443
68.1452
68.1607
68.1877
68.2249
68.2704
68.3292
68.3844
68.4621
68.5162
68.5947
68.6279
68.6643
-2.64038
-2.50418
-2.48943
-2.19056
-2.06286
-1.77838
-1.53833
-1.27125
-0.994322
-0.712575
-0.428417
-0.14305
68.1417
68.1425
68.158
68.185
68.2224
68.2686
68.3281
68.3854
68.4652
68.5238
68.6048
68.6409
68.6787
-2.65154
-2.51499
-2.50035
-2.20047
-2.07246
-1.78677
-1.54581
-1.27756
-0.999347
-0.716227
-0.430637
-0.143799
68.1392
68.1399
68.1554
68.1824
68.22
68.2667
68.327
68.3865
68.4687
68.532
68.6161
68.6553
68.6948
-2.66286
-2.52592
-2.51141
-2.21052
-2.08222
-1.79531
-1.55344
-1.284
-1.00448
-0.719962
-0.432907
-0.144565
68.1368
68.1374
68.1528
68.1798
68.2175
68.2648
68.3261
68.3878
68.4725
68.5408
68.6286
68.6713
68.7128
-2.67414
-2.5368
-2.52241
-2.22056
-2.09198
-1.80386
-1.56109
-1.29047
-1.00964
-0.723718
-0.435193
-0.145337
68.1345
68.1351
68.1503
68.1773
68.2152
68.263
68.3252
68.3893
68.4767
68.5501
68.6422
68.6887
68.7324
-2.6852
-2.54744
-2.53319
-2.23042
-2.10158
-1.81229
-1.56863
-1.29686
-1.01474
-0.727437
-0.437456
-0.146101
68.1324
68.1329
68.148
68.1749
68.2129
68.2613
68.3245
68.3909
68.4811
68.5599
68.6568
68.7072
68.7535
-2.69588
-2.55769
-2.54356
-2.23994
-2.11086
-1.82046
-1.57596
-1.30307
-1.01971
-0.731057
-0.439661
-0.146846
68.1306
68.131
68.1459
68.1727
68.2109
68.2598
68.3239
68.3926
68.4857
68.5699
68.6721
68.7266
68.7759
-2.70601
-2.56739
-2.55338
-2.24898
-2.11968
-1.82823
-1.58295
-1.309
-1.02445
-0.734519
-0.44177
-0.147559
68.1291
68.1293
68.144
68.1707
68.209
68.2583
68.3235
68.3944
68.4904
68.5799
68.6877
68.7464
68.7989
-2.71543
-2.57639
-2.56249
-2.25739
-2.12791
-1.8355
-1.58948
-1.31455
-1.0289
-0.737764
-0.443748
-0.148228
68.128
68.1279
68.1424
68.169
68.2073
68.2571
68.3231
68.3962
68.495
68.5896
68.7032
68.7662
68.8221
-2.72403
-2.58458
-2.57076
-2.26506
-2.1354
-1.84213
-1.59545
-1.31962
-1.03297
-0.740737
-0.445561
-0.148842
68.1273
68.1269
68.141
68.1675
68.2058
68.256
68.3229
68.398
68.4994
68.5988
68.718
68.7851
68.8445
-2.73168
-2.59181
-2.57806
-2.27185
-2.14205
-1.84802
-1.60076
-1.32415
-1.03659
-0.743388
-0.447179
-0.149389
68.1271
68.1262
68.14
68.1663
68.2046
68.2551
68.3228
68.3997
68.5033
68.6071
68.7314
68.8027
68.8655
-2.73828
-2.59804
-2.5843
-2.27769
-2.14775
-1.85307
-1.60532
-1.32804
-1.03972
-0.745672
-0.448572
-0.149861
68.1269
68.1257
68.1392
68.1653
68.2036
68.2544
68.3227
68.4011
68.5068
68.6142
68.743
68.818
68.8839
-2.74375
-2.60313
-2.58937
-2.28247
-2.15242
-1.85721
-1.60907
-1.33123
-1.04228
-0.747549
-0.449718
-0.150249
68.1293
68.1259
68.1387
68.1646
68.2029
68.2539
68.3227
68.4023
68.5095
68.6197
68.7521
68.8304
68.899
-2.74803
-2.60712
-2.59324
-2.28614
-2.156
-1.86038
-1.61194
-1.33367
-1.04425
-0.748986
-0.450595
-0.150546
68.13
68.1257
68.1382
68.1642
68.2025
68.2536
68.3226
68.4031
68.5114
68.6236
68.7582
68.8395
68.91
-2.75105
-2.60969
-2.59584
-2.28861
-2.15842
-1.8625
-1.61389
-1.33533
-1.04557
-0.749958
-0.451188
-0.150746
68.1362
68.1266
68.1382
68.1641
68.2023
68.2535
68.3227
68.4036
68.5124
68.6257
68.7616
68.8438
68.9165
-2.75273
-2.6115
-2.59715
-2.28994
-2.1597
-1.86355
-1.61489
-1.33617
-1.04625
-0.750452
-0.451489
-0.150846
68.1667
68.1636
68.1772
68.2027
68.2376
68.2789
68.3334
68.3764
68.4439
68.4735
68.5464
68.5659
68.5971
-2.58255
-2.44747
-2.43067
-2.13721
-2.01001
-1.73198
-1.49628
-1.23533
-0.965443
-0.691408
-0.415477
-0.138661
68.1599
68.162
68.1767
68.2024
68.2374
68.2788
68.3335
68.3768
68.4443
68.4753
68.5452
68.5663
68.5984
-2.58319
-2.44828
-2.43208
-2.13833
-2.01113
-1.73304
-1.49717
-1.23608
-0.966037
-0.691838
-0.415738
-0.138749
68.1579
68.1609
68.1759
68.2016
68.2368
68.2784
68.3332
68.3771
68.445
68.4772
68.5467
68.5681
68.601
-2.58549
-2.45109
-2.43493
-2.14083
-2.01354
-1.73514
-1.49901
-1.23762
-0.967257
-0.692721
-0.416272
-0.138929
68.1546
68.1588
68.1745
68.2003
68.2358
68.2777
68.3328
68.3775
68.4458
68.4797
68.5486
68.5712
68.6045
-2.58933
-2.45509
-2.43917
-2.14453
-2.01713
-1.73827
-1.50176
-1.23992
-0.969083
-0.694042
-0.417072
-0.139198
68.1521
68.1566
68.1727
68.1988
68.2345
68.2768
68.3322
68.3778
68.4468
68.4827
68.5514
68.5753
68.6091
-2.59461
-2.46051
-2.44472
-2.14945
-2.02188
-1.74237
-1.50538
-1.24296
-0.971489
-0.695784
-0.418128
-0.139553
68.1494
68.1544
68.1707
68.197
68.2329
68.2756
68.3314
68.3782
68.4481
68.4863
68.5551
68.5806
68.6148
-2.6012
-2.46712
-2.45148
-2.15545
-2.02769
-1.7474
-1.50982
-1.24669
-0.974443
-0.697925
-0.419425
-0.13999
68.1467
68.152
68.1684
68.1949
68.2311
68.2743
68.3304
68.3786
68.4495
68.4905
68.5597
68.587
68.6217
-2.60899
-2.47488
-2.45936
-2.16248
-2.03447
-1.75327
-1.51502
-1.25106
-0.977904
-0.700433
-0.420946
-0.140502
68.1439
68.1496
68.166
68.1926
68.229
68.2727
68.3293
68.379
68.4512
68.4952
68.5652
68.5945
68.6299
-2.61784
-2.48359
-2.46821
-2.17039
-2.04212
-1.7599
-1.5209
-1.256
-0.981823
-0.703275
-0.42267
-0.141082
68.1412
68.1469
68.1634
68.1901
68.2268
68.271
68.3282
68.3795
68.4532
68.5005
68.5716
68.6031
68.6393
-2.62757
-2.49314
-2.47787
-2.17907
-2.05051
-1.76719
-1.52737
-1.26144
-0.986143
-0.706409
-0.424572
-0.141723
68.1385
68.1443
68.1607
68.1875
68.2244
68.2692
68.3269
68.38
68.4554
68.5063
68.579
68.6131
68.6503
-2.63801
-2.50334
-2.4882
-2.18838
-2.05951
-1.77502
-1.53433
-1.2673
-0.990801
-0.70979
-0.426625
-0.142415
68.1358
68.1416
68.158
68.1848
68.2219
68.2672
68.3257
68.3806
68.4579
68.5127
68.5874
68.6243
68.6627
-2.64897
-2.51403
-2.49902
-2.19816
-2.06898
-1.78327
-1.54168
-1.27349
-0.995726
-0.713368
-0.428799
-0.143148
68.1331
68.1389
68.1552
68.1821
68.2193
68.2652
68.3244
68.3813
68.4607
68.5197
68.5969
68.637
68.6768
-2.66028
-2.52502
-2.51015
-2.20824
-2.07876
-1.79181
-1.5493
-1.27991
-1.00084
-0.717088
-0.43106
-0.14391
68.1306
68.1363
68.1525
68.1794
68.2168
68.2632
68.3231
68.3821
68.4638
68.5273
68.6076
68.6511
68.6927
-2.67173
-2.53613
-2.5214
-2.21847
-2.0887
-1.80051
-1.55706
-1.28648
-1.00607
-0.720893
-0.433373
-0.144691
68.1281
68.1338
68.1499
68.1767
68.2142
68.2612
68.322
68.383
68.4672
68.5355
68.6193
68.6666
68.7103
-2.68315
-2.54718
-2.5326
-2.22869
-2.09864
-1.80923
-1.56485
-1.29307
-1.01133
-0.724722
-0.435703
-0.145478
68.1259
68.1314
68.1474
68.1742
68.2118
68.2592
68.3209
68.3841
68.4709
68.5441
68.6321
68.6835
68.7296
-2.69434
-2.55798
-2.54356
-2.23871
-2.10842
-1.81781
-1.57254
-1.29958
-1.01653
-0.728513
-0.438011
-0.146257
68.1238
68.1292
68.1451
68.1717
68.2094
68.2573
68.3199
68.3853
68.4749
68.553
68.6458
68.7015
68.7504
-2.70514
-2.56838
-2.55411
-2.2484
-2.11787
-1.82614
-1.58001
-1.30591
-1.0216
-0.732205
-0.44026
-0.147018
68.122
68.1272
68.1429
68.1695
68.2073
68.2556
68.3191
68.3867
68.479
68.5622
68.6602
68.7205
68.7724
-2.71537
-2.57822
-2.56409
-2.25759
-2.12686
-1.83406
-1.58713
-1.31196
-1.02644
-0.735736
-0.442412
-0.147745
68.1205
68.1255
68.141
68.1675
68.2053
68.254
68.3184
68.3881
68.4832
68.5714
68.6748
68.7398
68.7951
-2.7249
-2.58734
-2.57335
-2.26615
-2.13523
-1.84146
-1.59379
-1.31762
-1.03097
-0.739047
-0.444431
-0.148428
68.1193
68.1242
68.1394
68.1657
68.2035
68.2526
68.3178
68.3896
68.4873
68.5803
68.6894
68.7591
68.818
-2.73358
-2.59564
-2.58175
-2.27394
-2.14287
-1.84822
-1.59988
-1.3228
-1.03512
-0.742082
-0.446282
-0.149055
68.1186
68.1231
68.138
68.1641
68.2019
68.2514
68.3174
68.391
68.4913
68.5886
68.7032
68.7777
68.8401
-2.7413
-2.60297
-2.58916
-2.28085
-2.14963
-1.85422
-1.60529
-1.32741
-1.03882
-0.744788
-0.447933
-0.149614
68.1184
68.1224
68.1369
68.1628
68.2007
68.2504
68.3171
68.3924
68.4949
68.5962
68.7158
68.7948
68.8608
-2.74796
-2.60928
-2.59549
-2.28678
-2.15544
-1.85937
-1.60995
-1.33138
-1.04201
-0.74712
-0.449357
-0.150096
68.1181
68.1219
68.136
68.1618
68.1996
68.2496
68.3168
68.3935
68.498
68.6026
68.7267
68.8098
68.8791
-2.75348
-2.61442
-2.60064
-2.29163
-2.1602
-1.86359
-1.61377
-1.33464
-1.04463
-0.749036
-0.450527
-0.150492
68.1206
68.1222
68.1355
68.1611
68.1989
68.249
68.3167
68.3945
68.5004
68.6077
68.7352
68.8219
68.894
-2.75779
-2.61846
-2.60457
-2.29536
-2.16384
-1.86681
-1.61669
-1.33714
-1.04663
-0.750504
-0.451423
-0.150796
68.1212
68.122
68.1351
68.1606
68.1984
68.2486
68.3165
68.3951
68.5021
68.6113
68.7408
68.8305
68.9049
-2.76084
-2.62106
-2.6072
-2.29787
-2.1663
-1.86897
-1.61868
-1.33883
-1.04799
-0.751496
-0.452029
-0.151
68.1274
68.1229
68.135
68.1605
68.1982
68.2485
68.3166
68.3955
68.5031
68.6134
68.7441
68.8333
68.9109
-2.76252
-2.62287
-2.60852
-2.29922
-2.1676
-1.87003
-1.6197
-1.33968
-1.04868
-0.751999
-0.452334
-0.151103
68.1607
68.1583
68.1721
68.1975
68.2323
68.2734
68.3276
68.3707
68.438
68.4683
68.5406
68.561
68.5933
-2.6003
-2.46566
-2.44705
-2.15008
-2.01986
-1.73949
-1.50105
-1.23817
-0.966934
-0.692031
-0.415632
-0.138635
68.1541
68.1567
68.1716
68.1971
68.2321
68.2733
68.3277
68.3711
68.4384
68.4701
68.5392
68.5613
68.5946
-2.60096
-2.46653
-2.44851
-2.15125
-2.02102
-1.74058
-1.50197
-1.23894
-0.967546
-0.692474
-0.4159
-0.138725
68.1522
68.1555
68.1707
68.1963
68.2314
68.2728
68.3274
68.3713
68.439
68.4719
68.5407
68.563
68.5973
-2.60335
-2.46944
-2.45147
-2.15383
-2.02351
-1.74276
-1.50387
-1.24053
-0.968804
-0.693384
-0.41645
-0.138911
68.1487
68.1534
68.1693
68.195
68.2304
68.2721
68.3269
68.3716
68.4397
68.4743
68.5426
68.566
68.6008
-2.60732
-2.47359
-2.45587
-2.15767
-2.02723
-1.74599
-1.50671
-1.24291
-0.970688
-0.694747
-0.417275
-0.139188
68.1459
68.1513
68.1675
68.1935
68.229
68.2711
68.3261
68.3718
68.4405
68.4771
68.5452
68.57
68.6052
-2.61278
-2.47922
-2.46164
-2.16276
-2.03215
-1.75023
-1.51045
-1.24604
-0.973172
-0.696545
-0.418365
-0.139555
68.1431
68.1491
68.1654
68.1916
68.2273
68.2698
68.3252
68.3719
68.4415
68.4805
68.5486
68.575
68.6107
-2.6196
-2.48608
-2.46866
-2.16898
-2.03816
-1.75543
-1.51504
-1.2499
-0.976223
-0.698754
-0.419704
-0.140005
68.1404
68.1466
68.1631
68.1894
68.2254
68.2683
68.3241
68.3721
68.4427
68.4843
68.5527
68.581
68.6173
-2.62765
-2.49412
-2.47684
-2.17626
-2.04519
-1.76151
-1.52042
-1.25441
-0.979799
-0.701346
-0.421275
-0.140534
68.1376
68.1441
68.1607
68.1871
68.2232
68.2666
68.3228
68.3722
68.444
68.4885
68.5576
68.588
68.625
-2.63678
-2.50315
-2.48601
-2.18445
-2.05311
-1.76837
-1.5265
-1.25952
-0.983851
-0.704283
-0.423057
-0.141134
68.1349
68.1414
68.158
68.1845
68.2208
68.2647
68.3213
68.3723
68.4455
68.4931
68.5633
68.5961
68.634
-2.64682
-2.51305
-2.49605
-2.19345
-2.06181
-1.77592
-1.5332
-1.26515
-0.988321
-0.707526
-0.425025
-0.141798
68.1322
68.1387
68.1553
68.1818
68.2183
68.2626
68.3198
68.3723
68.4472
68.4982
68.5698
68.6051
68.6441
-2.65758
-2.52361
-2.50676
-2.20309
-2.07114
-1.78404
-1.54041
-1.27122
-0.993143
-0.711027
-0.427151
-0.142514
68.1294
68.136
68.1525
68.179
68.2156
68.2604
68.3182
68.3724
68.449
68.5038
68.5772
68.6153
68.6557
-2.66888
-2.53467
-2.51798
-2.21321
-2.08096
-1.79259
-1.54802
-1.27763
-0.998246
-0.714734
-0.429403
-0.143274
68.1268
68.1332
68.1497
68.1762
68.2129
68.2581
68.3165
68.3725
68.4511
68.5097
68.5854
68.6267
68.6686
-2.68051
-2.54604
-2.52951
-2.22365
-2.09111
-1.80145
-1.55591
-1.2843
-1.00355
-0.718591
-0.431748
-0.144065
68.1242
68.1306
68.1469
68.1734
68.2102
68.2558
68.3148
68.3726
68.4534
68.516
68.5946
68.6392
68.6831
-2.69229
-2.55752
-2.54117
-2.23425
-2.10142
-1.81047
-1.56397
-1.29111
-1.00898
-0.722539
-0.434149
-0.144876
68.1217
68.128
68.1442
68.1706
68.2074
68.2535
68.3132
68.3728
68.4559
68.5228
68.6047
68.6529
68.6992
-2.70402
-2.56892
-2.55276
-2.24482
-2.11173
-1.81951
-1.57206
-1.29795
-1.01444
-0.726514
-0.436569
-0.145693
68.1194
68.1256
68.1416
68.1679
68.2048
68.2512
68.3116
68.3731
68.4587
68.5298
68.6156
68.6677
68.7167
-2.71551
-2.58008
-2.56411
-2.2552
-2.12187
-1.82842
-1.58004
-1.30472
-1.01984
-0.730454
-0.438968
-0.146504
68.1173
68.1234
68.1392
68.1653
68.2022
68.249
68.3101
68.3735
68.4616
68.5372
68.6273
68.6835
68.7356
-2.72659
-2.5908
-2.57502
-2.26522
-2.13168
-1.83706
-1.5878
-1.3113
-1.02511
-0.734292
-0.441307
-0.147295
68.1154
68.1213
68.137
68.163
68.1999
68.247
68.3088
68.374
68.4647
68.5447
68.6396
68.7
68.7555
-2.73707
-2.60093
-2.58534
-2.27473
-2.141
-1.84529
-1.59519
-1.31759
-1.03014
-0.737966
-0.443546
-0.148052
68.1139
68.1196
68.135
68.1608
68.1977
68.2451
68.3076
68.3746
68.4678
68.5521
68.6521
68.7169
68.7762
-2.74682
-2.61032
-2.5949
-2.28358
-2.14969
-1.85297
-1.60211
-1.32348
-1.03486
-0.741412
-0.445648
-0.148764
68.1127
68.1182
68.1333
68.1589
68.1957
68.2434
68.3066
68.3753
68.4709
68.5594
68.6644
68.7337
68.7969
-2.7557
-2.61885
-2.60357
-2.29163
-2.15761
-1.85999
-1.60844
-1.32887
-1.03918
-0.744573
-0.447577
-0.149417
68.1119
68.1171
68.1319
68.1573
68.194
68.2419
68.3057
68.376
68.4739
68.5662
68.6762
68.7498
68.817
-2.76359
-2.62638
-2.61121
-2.29877
-2.16463
-1.86622
-1.61407
-1.33367
-1.04304
-0.747392
-0.449298
-0.15
68.1117
68.1163
68.1307
68.1559
68.1926
68.2406
68.305
68.3767
68.4766
68.5724
68.687
68.7647
68.8357
-2.77038
-2.63286
-2.61774
-2.30489
-2.17065
-1.87157
-1.61891
-1.3378
-1.04636
-0.749822
-0.450782
-0.150503
68.1114
68.1159
68.1299
68.1548
68.1914
68.2396
68.3044
68.3774
68.4789
68.5776
68.6962
68.7776
68.8521
-2.77601
-2.63813
-2.62305
-2.3099
-2.17558
-1.87595
-1.62288
-1.34119
-1.04909
-0.751819
-0.452003
-0.150917
68.1138
68.1161
68.1293
68.1541
68.1906
68.2389
68.304
68.3779
68.4808
68.5817
68.7033
68.7881
68.8656
-2.7804
-2.64227
-2.62709
-2.31375
-2.17935
-1.87929
-1.62592
-1.34379
-1.05118
-0.753349
-0.452937
-0.151234
68.1145
68.1159
68.1288
68.1535
68.19
68.2384
68.3037
68.3782
68.4821
68.5846
68.7078
68.7958
68.8753
-2.7835
-2.64494
-2.6298
-2.31633
-2.18191
-1.88154
-1.62799
-1.34555
-1.05259
-0.754385
-0.45357
-0.151448
68.1207
68.1168
68.1288
68.1534
68.1898
68.2382
68.3037
68.3785
68.4829
68.5864
68.7103
68.8
68.8806
-2.78522
-2.64679
-2.63115
-2.31772
-2.18325
-1.88264
-1.62904
-1.34644
-1.05331
-0.754908
-0.453889
-0.151555
68.1514
68.1503
68.1644
68.1896
68.2242
68.2651
68.3189
68.3621
68.4291
68.4602
68.5316
68.5536
68.5865
-2.62858
-2.4928
-2.47153
-2.16928
-2.03447
-1.75053
-1.50799
-1.2422
-0.968976
-0.692808
-0.415756
-0.138552
68.1448
68.1486
68.1638
68.1892
68.224
68.265
68.3189
68.3624
68.4294
68.462
68.5299
68.5538
68.5879
-2.6293
-2.49375
-2.47307
-2.17051
-2.0357
-1.75168
-1.50895
-1.24301
-0.969615
-0.69327
-0.416035
-0.138646
68.1428
68.1474
68.1629
68.1884
68.2233
68.2644
68.3186
68.3625
68.4298
68.4637
68.5314
68.5554
68.5905
-2.63183
-2.49682
-2.4762
-2.17324
-2.03832
-1.75396
-1.51094
-1.24467
-0.970931
-0.694221
-0.41661
-0.13884
68.1392
68.1454
68.1615
68.1871
68.2222
68.2636
68.3179
68.3626
68.4303
68.4659
68.5328
68.5581
68.5938
-2.63602
-2.50121
-2.48085
-2.17728
-2.04223
-1.75735
-1.51392
-1.24716
-0.972901
-0.695647
-0.417473
-0.13913
68.1365
68.1433
68.1597
68.1855
68.2207
68.2625
68.317
68.3625
68.4309
68.4684
68.535
68.5618
68.598
-2.64178
-2.50716
-2.48694
-2.18264
-2.0474
-1.76181
-1.51784
-1.25045
-0.975502
-0.697528
-0.418612
-0.139513
68.1337
68.1409
68.1576
68.1835
68.2189
68.261
68.3158
68.3624
68.4316
68.4713
68.5379
68.5664
68.6031
-2.64896
-2.51439
-2.49436
-2.18918
-2.05373
-1.76727
-1.52266
-1.25449
-0.978699
-0.699843
-0.420015
-0.139986
68.1309
68.1384
68.1552
68.1813
68.2168
68.2593
68.3144
68.3622
68.4323
68.4746
68.5414
68.5719
68.6091
-2.65743
-2.52288
-2.503
-2.19684
-2.06113
-1.77366
-1.52831
-1.25922
-0.982449
-0.702559
-0.421663
-0.14054
68.1282
68.1358
68.1527
68.1788
68.2145
68.2574
68.3128
68.3618
68.433
68.478
68.5454
68.5781
68.6161
-2.66703
-2.53239
-2.51269
-2.20547
-2.06947
-1.78088
-1.5347
-1.26459
-0.986703
-0.705642
-0.423533
-0.14117
68.1254
68.1331
68.15
68.1761
68.2119
68.2552
68.311
68.3613
68.4338
68.4818
68.55
68.5851
68.6239
-2.67756
-2.54281
-2.52328
-2.21493
-2.07864
-1.78882
-1.54174
-1.27051
-0.9914
-0.709049
-0.425601
-0.141867
68.1226
68.1303
68.1471
68.1733
68.2092
68.2528
68.309
68.3607
68.4347
68.4857
68.5551
68.5929
68.6328
-2.68886
-2.55392
-2.53459
-2.22508
-2.08847
-1.79737
-1.54932
-1.2769
-0.996473
-0.712731
-0.427837
-0.142622
68.1198
68.1275
68.1442
68.1703
68.2063
68.2502
68.3069
68.3599
68.4356
68.4898
68.5608
68.6014
68.6425
-2.70069
-2.56555
-2.54642
-2.23573
-2.09883
-1.80638
-1.55734
-1.28365
-1.00185
-0.716634
-0.430209
-0.143422
68.1171
68.1247
68.1413
68.1674
68.2033
68.2475
68.3046
68.3591
68.4366
68.494
68.5669
68.6106
68.6533
-2.71287
-2.57748
-2.55858
-2.24673
-2.10953
-1.81572
-1.56566
-1.29068
-1.00744
-0.720701
-0.432682
-0.144257
68.1145
68.122
68.1384
68.1644
68.2003
68.2448
68.3023
68.3582
68.4376
68.4983
68.5736
68.6206
68.6652
-2.72517
-2.58952
-2.57086
-2.25787
-2.12041
-1.82524
-1.57416
-1.29787
-1.01317
-0.724867
-0.435216
-0.145113
68.112
68.1193
68.1356
68.1614
68.1973
68.242
68.3
68.3573
68.4387
68.5028
68.5808
68.6313
68.6781
-2.73741
-2.60147
-2.58306
-2.26899
-2.13129
-1.83478
-1.5827
-1.3051
-1.01893
-0.729067
-0.437773
-0.145977
68.1096
68.1168
68.133
68.1585
68.1943
68.2393
68.2977
68.3564
68.4399
68.5074
68.5886
68.6428
68.6922
-2.74938
-2.61314
-2.59499
-2.27991
-2.14199
-1.84419
-1.59113
-1.31225
-1.02465
-0.733234
-0.440311
-0.146836
68.1075
68.1146
68.1304
68.1558
68.1915
68.2366
68.2954
68.3556
68.4412
68.5121
68.5968
68.655
68.7072
-2.7609
-2.62434
-2.60646
-2.29045
-2.15235
-1.85331
-1.59933
-1.31922
-1.03022
-0.737297
-0.442788
-0.147674
68.1056
68.1125
68.1281
68.1533
68.1888
68.234
68.2933
68.3548
68.4427
68.5169
68.6055
68.6677
68.7231
-2.77179
-2.63491
-2.61728
-2.30044
-2.16219
-1.86201
-1.60715
-1.32587
-1.03555
-0.741189
-0.445162
-0.148478
68.104
68.1107
68.126
68.1509
68.1863
68.2317
68.2914
68.3542
68.4441
68.5217
68.6143
68.6806
68.7395
-2.7819
-2.6447
-2.62731
-2.30973
-2.17135
-1.87012
-1.61447
-1.33211
-1.04055
-0.744843
-0.447392
-0.149233
68.1028
68.1092
68.1242
68.1489
68.1841
68.2295
68.2896
68.3537
68.4456
68.5263
68.623
68.6934
68.7558
-2.79109
-2.65357
-2.63639
-2.31818
-2.1797
-1.87753
-1.62117
-1.33782
-1.04514
-0.748196
-0.449439
-0.149927
68.102
68.1081
68.1227
68.1471
68.1821
68.2276
68.2881
68.3533
68.4471
68.5306
68.6312
68.7056
68.7715
-2.79924
-2.66139
-2.64438
-2.32567
-2.18711
-1.88412
-1.62713
-1.34291
-1.04923
-0.751189
-0.451268
-0.150547
68.1017
68.1073
68.1215
68.1456
68.1805
68.226
68.2868
68.353
68.4484
68.5345
68.6386
68.7167
68.786
-2.80625
-2.66811
-2.65121
-2.33209
-2.19346
-1.88977
-1.63225
-1.3473
-1.05275
-0.75377
-0.452845
-0.151082
68.1014
68.1068
68.1206
68.1444
68.1792
68.2247
68.2858
68.3528
68.4496
68.5377
68.6448
68.7262
68.7986
-2.81204
-2.67358
-2.65675
-2.33733
-2.19865
-1.8944
-1.63646
-1.3509
-1.05565
-0.755892
-0.454142
-0.151522
68.1037
68.107
68.12
68.1436
68.1782
68.2237
68.285
68.3526
68.4505
68.5402
68.6495
68.7338
68.8087
-2.81656
-2.67786
-2.66097
-2.34136
-2.20263
-1.89793
-1.63968
-1.35365
-1.05787
-0.757518
-0.455137
-0.15186
68.1044
68.1068
68.1195
68.143
68.1775
68.223
68.2844
68.3525
68.4511
68.542
68.6522
68.739
68.8157
-2.81974
-2.68061
-2.6638
-2.34407
-2.20532
-1.9003
-1.64186
-1.35552
-1.05937
-0.758618
-0.45581
-0.152088
68.1105
68.1078
68.1194
68.1428
68.1773
68.2228
68.2842
68.3525
68.4515
68.5432
68.6535
68.7408
68.8193
-2.82149
-2.6825
-2.66521
-2.34551
-2.20673
-1.90147
-1.64298
-1.35647
-1.06013
-0.759176
-0.45615
-0.152202
68.1407
68.1401
68.1543
68.1793
68.2135
68.254
68.3073
68.3505
68.4171
68.4492
68.5196
68.5432
68.5768
-2.66741
-2.52924
-2.50424
-2.19479
-2.05375
-1.76493
-1.5169
-1.24724
-0.971403
-0.693612
-0.415767
-0.138385
68.134
68.1386
68.1537
68.1789
68.2132
68.2538
68.3073
68.3507
68.4173
68.4509
68.5177
68.5434
68.5781
-2.66821
-2.5303
-2.50589
-2.19611
-2.05506
-1.76615
-1.51792
-1.2481
-0.972078
-0.694099
-0.416061
-0.138483
68.132
68.1373
68.1528
68.178
68.2125
68.2532
68.3068
68.3507
68.4176
68.4524
68.519
68.5448
68.5806
-2.67095
-2.53359
-2.50925
-2.19902
-2.05785
-1.76858
-1.52003
-1.24986
-0.973471
-0.695105
-0.416668
-0.138688
68.1285
68.1352
68.1513
68.1766
68.2113
68.2523
68.306
68.3505
68.4178
68.4543
68.5201
68.5473
68.5837
-2.67545
-2.53832
-2.51423
-2.20333
-2.06203
-1.77219
-1.52319
-1.2525
-0.975558
-0.696614
-0.417581
-0.138994
68.1257
68.1331
68.1495
68.1749
68.2097
68.251
68.3048
68.3502
68.418
68.4565
68.5218
68.5506
68.5875
-2.68163
-2.5447
-2.52078
-2.20905
-2.06755
-1.77693
-1.52736
-1.25599
-0.978315
-0.698608
-0.418789
-0.139401
68.1229
68.1306
68.1473
68.1729
68.2078
68.2493
68.3034
68.3496
68.4182
68.4588
68.524
68.5545
68.592
-2.68932
-2.55246
-2.52874
-2.21604
-2.0743
-1.78275
-1.53249
-1.26028
-0.981707
-0.701062
-0.420277
-0.139902
68.1201
68.1281
68.1449
68.1705
68.2055
68.2473
68.3016
68.3489
68.4183
68.4612
68.5265
68.5591
68.5972
-2.69837
-2.56154
-2.53801
-2.22422
-2.08221
-1.78956
-1.53849
-1.26531
-0.985692
-0.703948
-0.422027
-0.140491
68.1173
68.1254
68.1422
68.1679
68.203
68.2451
68.2996
68.3479
68.4183
68.4637
68.5294
68.5642
68.6029
-2.70862
-2.57172
-2.54841
-2.23344
-2.09113
-1.79726
-1.5453
-1.27103
-0.990218
-0.707227
-0.424016
-0.141162
68.1145
68.1226
68.1394
68.1651
68.2001
68.2425
68.2972
68.3466
68.4182
68.4661
68.5324
68.5696
68.6092
-2.71987
-2.58286
-2.55977
-2.24354
-2.10093
-1.80575
-1.55281
-1.27734
-0.995222
-0.710855
-0.426218
-0.141904
68.1116
68.1197
68.1365
68.1621
68.1971
68.2397
68.2946
68.3451
68.418
68.4684
68.5354
68.5753
68.6159
-2.73189
-2.59473
-2.57189
-2.25438
-2.11145
-1.81488
-1.56091
-1.28416
-1.00063
-0.714782
-0.428604
-0.142709
68.1088
68.1168
68.1335
68.1589
68.1939
68.2367
68.2918
68.3433
68.4176
68.4704
68.5385
68.5811
68.623
-2.74448
-2.60713
-2.58457
-2.26576
-2.12254
-1.82452
-1.56948
-1.29138
-1.00638
-0.718952
-0.431138
-0.143565
68.1061
68.114
68.1304
68.1557
68.1906
68.2335
68.2888
68.3412
68.417
68.4722
68.5415
68.5869
68.6303
-2.75742
-2.61984
-2.59758
-2.2775
-2.134
-1.83452
-1.57838
-1.2989
-1.01236
-0.723302
-0.433784
-0.144458
68.1034
68.1111
68.1274
68.1525
68.1872
68.2302
68.2856
68.339
68.4163
68.4737
68.5444
68.5927
68.6378
-2.77046
-2.63265
-2.61071
-2.28941
-2.14566
-1.84472
-1.58749
-1.3066
-1.0185
-0.727766
-0.436501
-0.145377
68.1008
68.1084
68.1245
68.1493
68.1839
68.2268
68.2824
68.3365
68.4154
68.4749
68.5473
68.5985
68.6455
-2.78341
-2.64534
-2.62375
-2.30128
-2.15732
-1.85494
-1.59664
-1.31436
-1.02468
-0.732272
-0.439245
-0.146305
68.0984
68.1059
68.1216
68.1462
68.1805
68.2234
68.2791
68.334
68.4145
68.4759
68.5502
68.6043
68.6536
-2.79606
-2.65771
-2.63647
-2.31293
-2.16879
-1.86503
-1.60569
-1.32204
-1.03082
-0.736748
-0.441973
-0.147228
68.0962
68.1035
68.119
68.1433
68.1773
68.2201
68.2759
68.3315
68.4136
68.4768
68.5532
68.6103
68.662
-2.80819
-2.66957
-2.64869
-2.32416
-2.17989
-1.87482
-1.6145
-1.32953
-1.03681
-0.741119
-0.444638
-0.148131
68.0942
68.1014
68.1165
68.1405
68.1742
68.2169
68.2728
68.329
68.4127
68.4776
68.5562
68.6163
68.6707
-2.81964
-2.68074
-2.66021
-2.33481
-2.19043
-1.88415
-1.6229
-1.33669
-1.04255
-0.74531
-0.447195
-0.148998
68.0926
68.0995
68.1143
68.138
68.1714
68.2139
68.2698
68.3267
68.4119
68.4784
68.5593
68.6223
68.6794
-2.83024
-2.69105
-2.67086
-2.34471
-2.20026
-1.89286
-1.63077
-1.34341
-1.04794
-0.749248
-0.449601
-0.149813
68.0913
68.0979
68.1124
68.1357
68.1688
68.2112
68.2671
68.3246
68.4111
68.4791
68.5623
68.6281
68.688
-2.83985
-2.70039
-2.6805
-2.35371
-2.20921
-1.90082
-1.63798
-1.34957
-1.05288
-0.752866
-0.451811
-0.150563
68.0904
68.0967
68.1108
68.1337
68.1666
68.2087
68.2647
68.3227
68.4104
68.4797
68.565
68.6334
68.6958
-2.84835
-2.70861
-2.68897
-2.36167
-2.21714
-1.90789
-1.64439
-1.35506
-1.0573
-0.756097
-0.453786
-0.151234
68.0901
68.0959
68.1095
68.1321
68.1646
68.2066
68.2626
68.321
68.4097
68.4802
68.5672
68.6379
68.7026
-2.85565
-2.71565
-2.6962
-2.36849
-2.22394
-1.91396
-1.6499
-1.35978
-1.0611
-0.758885
-0.455492
-0.151813
68.0898
68.0954
68.1085
68.1308
68.1631
68.2049
68.2609
68.3196
68.4092
68.4805
68.5686
68.6414
68.7079
-2.86166
-2.72137
-2.70206
-2.37405
-2.22949
-1.91892
-1.65443
-1.36367
-1.06423
-0.761179
-0.456895
-0.15229
68.0921
68.0956
68.1078
68.1298
68.1619
68.2036
68.2596
68.3186
68.4086
68.4806
68.5693
68.6436
68.7115
-2.86635
-2.72583
-2.70651
-2.37832
-2.23375
-1.92272
-1.6579
-1.36664
-1.06663
-0.762937
-0.457972
-0.152656
68.0926
68.0953
68.1073
68.1291
68.1611
68.2027
68.2586
68.3178
68.4082
68.4805
68.569
68.6445
68.7133
-2.86964
-2.7287
-2.70949
-2.38119
-2.23663
-1.92526
-1.66024
-1.36866
-1.06825
-0.764128
-0.4587
-0.152903
68.0988
68.0963
68.1072
68.129
68.1608
68.2024
68.2583
68.3175
68.4081
68.4809
68.5681
68.6384
68.7137
-2.87144
-2.73064
-2.71099
-2.38271
-2.23814
-1.92651
-1.66144
-1.36968
-1.06908
-0.764731
-0.45907
-0.153028
68.1281
68.1279
68.1419
68.1665
68.2002
68.2402
68.2928
68.3359
68.402
68.4352
68.5046
68.53
68.5641
-2.71706
-2.57512
-2.54528
-2.22653
-2.07756
-1.78247
-1.52752
-1.25305
-0.973999
-0.694275
-0.41556
-0.138095
68.1215
68.1263
68.1413
68.166
68.1999
68.24
68.2927
68.3361
68.4022
68.4368
68.5025
68.5301
68.5654
-2.71797
-2.57633
-2.54708
-2.22796
-2.07897
-1.78379
-1.52862
-1.25396
-0.97472
-0.694794
-0.415871
-0.138199
68.1195
68.125
68.1404
68.1651
68.1991
68.2393
68.2921
68.3359
68.4022
68.4381
68.5036
68.5314
68.5677
-2.72097
-2.57992
-2.55073
-2.23111
-2.08199
-1.7864
-1.53088
-1.25584
-0.976208
-0.695868
-0.41652
-0.138416
68.1159
68.1229
68.1388
68.1637
68.1978
68.2382
68.2911
68.3354
68.4022
68.4396
68.5042
68.5335
68.5705
-2.7259
-2.58508
-2.55616
-2.23578
-2.08649
-1.79028
-1.53427
-1.25867
-0.978441
-0.697481
-0.417495
-0.138744
68.1131
68.1206
68.1369
68.1619
68.1961
68.2367
68.2897
68.3347
68.4019
68.4412
68.5053
68.5361
68.5737
-2.73262
-2.59201
-2.56329
-2.24196
-2.09246
-1.79539
-1.53875
-1.26242
-0.981394
-0.699615
-0.418788
-0.139179
68.1102
68.1182
68.1347
68.1597
68.1939
68.2348
68.2878
68.3336
68.4015
68.4428
68.5066
68.5393
68.5774
-2.74098
-2.60044
-2.57195
-2.24952
-2.09976
-1.80166
-1.54426
-1.26702
-0.985033
-0.702246
-0.420382
-0.139716
68.1074
68.1155
68.1321
68.1572
68.1915
68.2325
68.2857
68.3323
68.4009
68.4442
68.508
68.5428
68.5815
-2.75081
-2.6103
-2.58204
-2.25836
-2.1083
-1.80901
-1.55073
-1.27244
-0.989313
-0.705344
-0.422261
-0.140349
68.1046
68.1128
68.1294
68.1545
68.1887
68.2298
68.2831
68.3305
68.4
68.4454
68.5092
68.5463
68.5857
-2.76193
-2.62135
-2.59336
-2.26833
-2.11796
-1.81732
-1.55807
-1.27859
-0.994182
-0.70887
-0.4244
-0.141071
68.1017
68.1099
68.1264
68.1514
68.1856
68.2268
68.2801
68.3283
68.3987
68.4462
68.5101
68.5495
68.5897
-2.7741
-2.63341
-2.60571
-2.27926
-2.12858
-1.8265
-1.56617
-1.2854
-0.999576
-0.712779
-0.426773
-0.141871
68.0988
68.1069
68.1234
68.1482
68.1822
68.2235
68.2768
68.3256
68.3971
68.4463
68.5104
68.5523
68.5934
-2.7871
-2.64625
-2.61888
-2.29099
-2.13999
-1.83638
-1.57493
-1.29276
-1.00542
-0.717018
-0.429349
-0.14274
68.0959
68.104
68.1202
68.1449
68.1787
68.2199
68.2732
68.3225
68.395
68.4457
68.5099
68.5542
68.5963
-2.80069
-2.65965
-2.63265
-2.3033
-2.15202
-1.84683
-1.58421
-1.30058
-1.01163
-0.721527
-0.43209
-0.143666
68.0931
68.101
68.117
68.1414
68.175
68.2161
68.2692
68.3189
68.3925
68.4442
68.5085
68.5549
68.5982
-2.81461
-2.67337
-2.64677
-2.31601
-2.16446
-1.85768
-1.59387