/*--------------------------------*- C++ -*----------------------------------*\
  =========                 |
  \\      /  F ield         | OpenFOAM: The Open Source CFD Toolbox
   \\    /   O peration     | Website:  https://openfoam.org
    \\  /    A nd           | Version:  11
     \\/     M anipulation  |
\*---------------------------------------------------------------------------*/
FoamFile
{
    format      ascii;
    class       volScalarField;
    location    "45";
    object      k;
}
// * * * * * * * * * * * * * * * * * * * * * * * * * * * * * * * * * * * * * //

dimensions      [0 2 -2 0 0 0 0];

internalField   nonuniform List<scalar> 
17196
(
0.00929192
0.00763941
0.00586657
0.00514956
0.00457003
0.00327548
0.00289935
0.00382682
0.00429524
0.00507532
0.00572872
0.00680458
0.00911619
0.0122011
0.0146916
0.0173092
0.0189267
0.0208275
0.022729
0.024302
0.0259028
0.0271196
0.0285601
0.0291477
0.0313896
0.00974248
0.00865134
0.00769878
0.00710153
0.00653595
0.0043045
0.00359537
0.00401409
0.00450234
0.00523828
0.00619973
0.00726506
0.0103018
0.0142823
0.0170892
0.0199198
0.022534
0.0256167
0.0278301
0.030353
0.0325676
0.0342646
0.0362923
0.0372466
0.04017
0.00985118
0.00848326
0.00787092
0.00737086
0.00688194
0.00481579
0.00417387
0.00452836
0.00493811
0.00557558
0.00622072
0.00754658
0.0106744
0.0141412
0.0168924
0.020156
0.0227765
0.0260386
0.028363
0.031242
0.033612
0.0357497
0.0381493
0.0393671
0.0418401
0.00989005
0.00841256
0.00773935
0.0073461
0.00679435
0.00480379
0.0045272
0.00521152
0.00566259
0.00579926
0.00623148
0.00705873
0.00989357
0.0137823
0.0164293
0.019302
0.0228295
0.0263182
0.0289042
0.031427
0.0337804
0.035984
0.0385433
0.039775
0.0422628
0.00984769
0.00838582
0.00756505
0.00722438
0.00645374
0.00477481
0.00499368
0.00623589
0.00642977
0.00570584
0.005783
0.00673341
0.00894268
0.0112226
0.0139282
0.0178437
0.0208664
0.0247907
0.0274165
0.031073
0.0335612
0.0359418
0.038376
0.0396862
0.0418201
0.00978786
0.00839614
0.00746156
0.00702841
0.00545166
0.00461105
0.00581773
0.00765188
0.00691057
0.00568867
0.00537341
0.0058144
0.00574943
0.00788695
0.0108619
0.0138914
0.0169496
0.0213658
0.0242173
0.0281232
0.0305558
0.0335633
0.0359779
0.0374861
0.0393026
0.0098554
0.0083562
0.00766213
0.00640642
0.00448303
0.00491644
0.00703284
0.00853835
0.00675452
0.00538139
0.00539869
0.00597398
0.00556165
0.00687522
0.00837611
0.0112656
0.0142432
0.017803
0.0204637
0.0239568
0.0263839
0.0289148
0.0312027
0.0329306
0.0352874
0.00970218
0.00861275
0.0082882
0.00584309
0.00461978
0.00567287
0.00855036
0.00858219
0.00660181
0.00562088
0.0059615
0.00594593
0.0054576
0.00582026
0.0067415
0.00932688
0.0122846
0.0157938
0.0182669
0.0205649
0.0227273
0.024511
0.0275211
0.0291798
0.0323929
0.00978998
0.00865454
0.00797353
0.00527148
0.00578779
0.00650454
0.0104005
0.00863993
0.00592417
0.00530249
0.00590114
0.00605497
0.00575922
0.00592524
0.00687551
0.00869369
0.0117314
0.0142597
0.0160147
0.0177611
0.0205186
0.022718
0.0262962
0.0280514
0.031601
0.00960732
0.00892699
0.00778537
0.00625743
0.00627842
0.0075429
0.0120414
0.0103895
0.00646731
0.00586112
0.00602079
0.00603468
0.00599866
0.00616371
0.00721324
0.00835752
0.00948393
0.0104093
0.0127251
0.0148112
0.018706
0.0213426
0.0255439
0.0271294
0.0312629
0.00969178
0.00889263
0.00727459
0.00558778
0.00651148
0.00889928
0.0122892
0.0102497
0.00696725
0.0065412
0.00579583
0.00594258
0.00700716
0.00707479
0.00761284
0.00812389
0.00841496
0.00898807
0.0110668
0.0133271
0.017515
0.0204006
0.0249244
0.0264428
0.0318269
0.00937784
0.00925656
0.00754707
0.00615127
0.00672335
0.0105709
0.0123659
0.0101269
0.00650714
0.0077729
0.0070473
0.00766737
0.00806412
0.00770148
0.00866167
0.00866737
0.00846744
0.00909259
0.0112209
0.0138103
0.0179636
0.0201564
0.0251435
0.0265288
0.0328636
0.00958222
0.00894932
0.00768764
0.00570142
0.00856562
0.0115091
0.0120727
0.00951873
0.007706
0.0088819
0.00768601
0.00895803
0.00906491
0.00817435
0.00985664
0.00976357
0.00865351
0.00994836
0.0118059
0.0147135
0.0178222
0.0199298
0.0240178
0.0255838
0.0311963
0.00957472
0.00902341
0.00800658
0.0067181
0.0105167
0.0124488
0.0147763
0.0103348
0.008685
0.00917883
0.00829119
0.0102205
0.00859201
0.0094588
0.0107438
0.00937346
0.0100908
0.0109419
0.0126355
0.014351
0.0167487
0.0178737
0.0211933
0.0229318
0.0296699
0.00992344
0.00864539
0.00771833
0.0063345
0.0136118
0.0133238
0.0146579
0.0109816
0.0104121
0.0097841
0.0105029
0.0108992
0.0119352
0.0128858
0.01243
0.0131044
0.0127028
0.0127528
0.0142107
0.0150787
0.0161486
0.0180031
0.0205617
0.0221999
0.0282615
0.00978542
0.00839406
0.00758204
0.00667542
0.0176747
0.0156831
0.0175389
0.0129209
0.0126123
0.0130442
0.013858
0.0164797
0.0157852
0.016232
0.016028
0.0160745
0.0159199
0.0162759
0.0152459
0.0157671
0.0171529
0.0178493
0.0203166
0.0212454
0.0267452
0.0102553
0.00774484
0.00731025
0.00690811
0.0225243
0.0203687
0.0178808
0.016182
0.0154713
0.0157221
0.0174058
0.0200721
0.0207749
0.0203979
0.0207173
0.0199463
0.0196469
0.0191268
0.0177079
0.0179157
0.0186874
0.0191768
0.0212269
0.0222858
0.0263568
0.00963677
0.00746319
0.00712778
0.00908103
0.0288181
0.024217
0.0181771
0.0170915
0.0175348
0.0186597
0.0219854
0.0281455
0.0248849
0.0237777
0.0241649
0.0247271
0.0230333
0.0234337
0.0220433
0.02321
0.0216691
0.021561
0.0225152
0.0233279
0.0266445
0.00959159
0.00763547
0.00705352
0.0102173
0.0355337
0.0314047
0.022914
0.0198557
0.0202578
0.0226093
0.030409
0.033021
0.0298756
0.0266798
0.0284684
0.0272858
0.0262592
0.0257233
0.0266228
0.0260404
0.0240527
0.0252428
0.0246507
0.0248069
0.0279346
0.00952563
0.00733541
0.00700278
0.0119079
0.0426851
0.0384216
0.0274688
0.0227689
0.0241175
0.0287186
0.0389954
0.038966
0.0356699
0.0319213
0.0314266
0.030197
0.029149
0.028522
0.0267707
0.0276171
0.027961
0.0251822
0.0270734
0.027529
0.0292003
0.00905036
0.0068888
0.00693431
0.0112532
0.0472691
0.0469589
0.0339056
0.0279579
0.0302382
0.0360617
0.0438916
0.0480391
0.045172
0.0420482
0.0363948
0.0359932
0.0334949
0.0297907
0.0295279
0.0297574
0.0290629
0.0295707
0.029722
0.027877
0.0301412
0.00872051
0.00634583
0.00669274
0.00952821
0.042899
0.0519854
0.0396042
0.034943
0.0381925
0.0409567
0.0520168
0.0567383
0.0547831
0.0489326
0.0470814
0.0438065
0.0437896
0.0412191
0.0373532
0.0358086
0.0341195
0.0360209
0.0366653
0.0368713
0.0369387
0.00887742
0.0061466
0.00626508
0.00712958
0.031953
0.0553292
0.0490932
0.0479009
0.0512704
0.0533529
0.0594462
0.0664189
0.0622739
0.0667745
0.0634863
0.063754
0.0600727
0.0557655
0.055503
0.0498315
0.0482139
0.0450022
0.043114
0.0445701
0.0441178
0.0090629
0.00596553
0.00608526
0.00710721
0.0359913
0.0533127
0.061996
0.0625913
0.0615308
0.0643274
0.0644883
0.0686305
0.066591
0.0758622
0.0701787
0.0804347
0.0749138
0.0738438
0.0773578
0.0724103
0.0639174
0.0594547
0.0576046
0.0570502
0.0568745
0.00853494
0.00658752
0.00711078
0.0122874
0.0378154
0.0401602
0.0482419
0.0539299
0.0585825
0.0577015
0.0535164
0.0625217
0.0508017
0.0623834
0.0628772
0.0640094
0.0640091
0.0612392
0.0563645
0.0535641
0.0514008
0.0480526
0.0445255
0.047514
0.0516185
0.00941786
0.0080824
0.00667034
0.00546409
0.00501637
0.00370482
0.00312582
0.00447264
0.00545267
0.0065288
0.00839813
0.011711
0.0148847
0.0183478
0.0203305
0.0228124
0.0250038
0.0263549
0.0282812
0.0304966
0.0328514
0.0344672
0.0373253
0.0395437
0.0454298
0.00356827
0.00170473
0.00196426
0.00364618
0.00617745
0.00756416
0.00486771
0.00583522
0.0079754
0.0103297
0.0132196
0.0154922
0.0179685
0.020507
0.0227054
0.0262664
0.0305675
0.0331686
0.0360423
0.0388754
0.0417599
0.0438505
0.0467528
0.0508193
0.0524932
0.00337273
0.00154849
0.00155075
0.00224616
0.00290361
0.00492309
0.00603968
0.00717516
0.0105588
0.0122517
0.0138442
0.014282
0.014356
0.0132432
0.0155669
0.0195707
0.0217829
0.0244219
0.0267045
0.0293173
0.0321579
0.0350085
0.0376054
0.0410976
0.0410271
0.00339646
0.00155174
0.0015464
0.0019407
0.00288682
0.00387551
0.00608761
0.00863536
0.0116941
0.0120419
0.0111202
0.00958401
0.00670551
0.00872276
0.0118983
0.0149113
0.0167737
0.0196785
0.0213198
0.0244064
0.0280801
0.0315553
0.0345243
0.0366433
0.0374675
0.00342699
0.00152869
0.00161666
0.00193751
0.00317232
0.00408393
0.00725225
0.0123117
0.0122349
0.00964756
0.00653912
0.00551418
0.00543246
0.00801619
0.00919732
0.0108236
0.0117672
0.0146008
0.0168011
0.0203354
0.0241141
0.0284497
0.0313737
0.0336982
0.0339003
0.0034597
0.00148323
0.00160219
0.00210486
0.00332235
0.00438109
0.00948764
0.0140989
0.0100533
0.00548027
0.0051931
0.00582847
0.00576722
0.00567332
0.00620492
0.00718894
0.0101086
0.0137091
0.0165212
0.0199081
0.0229723
0.0255489
0.0273813
0.0279375
0.0276671
0.00349888
0.0014218
0.00162081
0.00221944
0.00327996
0.00430355
0.0144078
0.0115637
0.00688084
0.00483392
0.00643149
0.00643861
0.00568962
0.00579838
0.00604968
0.00695579
0.0131721
0.0178856
0.0218484
0.0242785
0.0245102
0.0230028
0.0219527
0.0224284
0.0207231
0.0034978
0.0014043
0.00175358
0.00236504
0.00331538
0.0071536
0.0159927
0.0101192
0.00658775
0.00584154
0.006876
0.00730955
0.0062257
0.00633182
0.00676176
0.0100931
0.0222049
0.029846
0.0328732
0.0321305
0.0275898
0.0230918
0.0208999
0.0203919
0.0198865
0.00349456
0.00141453
0.00176185
0.00235184
0.00278675
0.0144304
0.0140433
0.00824179
0.00571702
0.00483382
0.00704352
0.00564947
0.00592967
0.00671179
0.00906612
0.0161219
0.0392345
0.0472711
0.0429215
0.0351292
0.0283366
0.0236355
0.0220271
0.0216337
0.0214883
0.00346581
0.00148867
0.00182652
0.00254375
0.00419096
0.0179941
0.0128001
0.00718447
0.00620315
0.00546051
0.0054369
0.00513786
0.00632334
0.00736074
0.0143537
0.026286
0.0434883
0.0437725
0.0301028
0.0298999
0.0291239
0.0242434
0.0267479
0.0230667
0.0254171
0.00348221
0.00154093
0.00189829
0.00216519
0.0130261
0.0148767
0.00971144
0.00734967
0.00643181
0.00637002
0.00612131
0.00625921
0.00762731
0.0101592
0.0180346
0.0287633
0.0234209
0.0221179
0.0286188
0.0362408
0.0367599
0.0289439
0.029979
0.027233
0.0336084
0.00347582
0.0015897
0.00193004
0.00213506
0.0146217
0.0130413
0.0096802
0.0073255
0.00806332
0.00771152
0.007708
0.00801966
0.0084428
0.0118385
0.0176402
0.0167851
0.0172542
0.0210789
0.033599
0.037645
0.0454861
0.0358678
0.0391737
0.0348689
0.0460593
0.00351742
0.00154637
0.00182504
0.00241983
0.0147809
0.0121285
0.00860962
0.00840142
0.00906229
0.00852865
0.00858101
0.00867314
0.00844305
0.0100708
0.0118203
0.0126793
0.0189578
0.0301131
0.036985
0.0456615
0.0416685
0.0418646
0.0442046
0.0420018
0.0560778
0.003552
0.00149503
0.00178592
0.00369576
0.0126718
0.0110483
0.0107628
0.00958768
0.00900881
0.00832574
0.00868551
0.00848765
0.0084601
0.00903525
0.00994811
0.0145077
0.023468
0.0304976
0.033828
0.0295985
0.0294848
0.024472
0.02216
0.0265828
0.0534636
0.00364485
0.00128078
0.00159916
0.00444273
0.0134226
0.0143195
0.0113448
0.00963022
0.00812882
0.0081505
0.00836088
0.00799331
0.00850291
0.00908744
0.0122868
0.0190329
0.0263729
0.0246322
0.0284867
0.0236805
0.0220196
0.0241369
0.0207364
0.0264542
0.052588
0.00364462
0.00125178
0.00182997
0.00598713
0.0165044
0.016912
0.0133303
0.0101062
0.00967782
0.00903829
0.00810354
0.00810188
0.00905686
0.0113089
0.0157221
0.0223097
0.0257025
0.0271129
0.0221515
0.0223939
0.0227959
0.0209319
0.0232211
0.0218122
0.0484845
0.00369318
0.00124569
0.00191165
0.00828306
0.022534
0.0212306
0.0160987
0.0134167
0.0125174
0.0115285
0.0103673
0.00917708
0.0103872
0.0113111
0.0141771
0.0163677
0.0238507
0.0204349
0.0248658
0.0241531
0.0234546
0.0191389
0.0220799
0.0216773
0.0428834
0.00367634
0.00150701
0.00207647
0.0135953
0.028822
0.0277704
0.0204176
0.0157646
0.0133131
0.0121535
0.0108809
0.0102829
0.0114807
0.0118836
0.0144669
0.0165571
0.0182207
0.0169042
0.0217328
0.0198557
0.0188114
0.0173636
0.0184928
0.0196566
0.0366189
0.00332506
0.00216618
0.00186904
0.021377
0.0409453
0.0383299
0.0259847
0.0168681
0.0139188
0.0124447
0.00900856
0.0109889
0.0112615
0.0126084
0.0141062
0.0163042
0.0191061
0.0185225
0.0195384
0.0211826
0.0227483
0.0222662
0.0232636
0.0246786
0.0369517
0.00319887
0.00288752
0.00677071
0.0360641
0.0581213
0.0495305
0.0320576
0.0178791
0.0144491
0.0114189
0.00954551
0.00974099
0.0109185
0.0114994
0.012287
0.0141021
0.0171727
0.0184112
0.0193729
0.020993
0.0230374
0.0240471
0.0268105
0.0281761
0.0374838
0.00304355
0.00857365
0.035421
0.0564908
0.0783148
0.0611535
0.042449
0.0207649
0.0166219
0.0137239
0.0103107
0.0117586
0.0111401
0.0121488
0.0108462
0.0129698
0.0161035
0.017653
0.0184652
0.0198132
0.021029
0.0222512
0.0243957
0.026767
0.0339307
0.00302192
0.0444411
0.126336
0.102146
0.102101
0.0684484
0.0512144
0.0263162
0.0215582
0.0196214
0.015771
0.0170772
0.0156349
0.0140858
0.0117895
0.0109714
0.0125103
0.0154526
0.0161089
0.0164607
0.0176855
0.0179183
0.0192551
0.0199718
0.026394
0.00317549
0.0798759
0.0983754
0.102585
0.109515
0.0706837
0.0584147
0.0395055
0.0247152
0.0191412
0.0171718
0.0169988
0.0163629
0.0129
0.0126311
0.0115588
0.0110561
0.0116172
0.0122426
0.0129057
0.0143116
0.0160813
0.0178582
0.0202619
0.0214838
0.00288982
0.0270265
0.0382071
0.0495379
0.0778142
0.071679
0.0815168
0.0924594
0.0956361
0.100054
0.0899639
0.087097
0.0782517
0.0760188
0.0751072
0.0823752
0.0772199
0.072625
0.0683934
0.06418
0.0514425
0.0480173
0.04155
0.041233
0.0394278
0.00775259
0.00951469
0.0123698
0.028335
0.049436
0.0517552
0.0704121
0.0797591
0.0857701
0.0774191
0.065532
0.0818295
0.064921
0.0831058
0.0787787
0.0895632
0.0902162
0.0896916
0.0868638
0.0842451
0.0800169
0.0791338
0.0782885
0.0797233
0.0796167
0.00948523
0.00785198
0.00675472
0.00515337
0.00500905
0.00507626
0.00382722
0.00451496
0.00604518
0.00765374
0.00956465
0.0138582
0.0186486
0.0233219
0.0269221
0.0304717
0.0336221
0.0342022
0.0342959
0.0345924
0.0356439
0.0373894
0.0402632
0.0419662
0.0463427
0.00336239
0.00125084
0.00120397
0.00315686
0.00549907
0.00874646
0.00870672
0.00810947
0.00959643
0.0135885
0.016512
0.0218301
0.0267028
0.027068
0.0270071
0.0290335
0.0300883
0.0311188
0.0327793
0.0352087
0.0372071
0.0387586
0.0418819
0.0453893
0.0486125
0.00318641
0.00118838
0.0006618
0.00101707
0.00126045
0.00222862
0.00493481
0.00677857
0.00976594
0.0143208
0.0165814
0.0195656
0.0179486
0.0175239
0.0168455
0.0168328
0.0166734
0.017113
0.0181671
0.0198214
0.0216578
0.023477
0.0267769
0.0296989
0.0324255
0.00318324
0.00121582
0.000671743
0.000618772
0.000761145
0.00184523
0.00367746
0.00526862
0.00802949
0.0111243
0.0133494
0.0109615
0.0102777
0.0100627
0.0101135
0.0102003
0.0110046
0.0127599
0.0144231
0.015807
0.0172177
0.0185995
0.0204764
0.022685
0.025567
0.00318228
0.00123638
0.000647501
0.000583538
0.000759197
0.00192748
0.00332637
0.00523318
0.00824302
0.00913566
0.00909075
0.00754255
0.0071871
0.00791048
0.00763035
0.00886182
0.0103996
0.0128717
0.0151389
0.0165899
0.0175678
0.0187996
0.0181652
0.0190297
0.0202192
0.00318334
0.00124187
0.000628199
0.000609219
0.00090029
0.00178029
0.00354729
0.00734698
0.00842685
0.00779914
0.00817106
0.00712964
0.00947677
0.00848774
0.00869342
0.0112437
0.0139398
0.0196949
0.0225493
0.0255152
0.0237095
0.0208351
0.018995
0.0180663
0.0170659
0.00318551
0.00122707
0.000621813
0.000632351
0.000929316
0.00174137
0.00544904
0.00841864
0.00831194
0.0105148
0.0135137
0.0114253
0.0113462
0.0108259
0.0120112
0.0157042
0.0215778
0.0411949
0.0392135
0.0336216
0.0259618
0.0212585
0.0186791
0.0165897
0.0169513
0.0031851
0.00121359
0.000640975
0.000668796
0.00100147
0.00173771
0.00815844
0.00872032
0.00818273
0.0119924
0.0140342
0.0147054
0.0136928
0.0133439
0.0172786
0.0286511
0.0549051
0.0752425
0.0664177
0.0484328
0.0328276
0.0252578
0.0209424
0.0198054
0.0192579
0.00318701
0.00119926
0.000634077
0.000695823
0.000687997
0.00420987
0.00901205
0.00646357
0.0135437
0.0145576
0.0156551
0.0150047
0.0131964
0.0159517
0.0277542
0.0453537
0.12058
0.122005
0.0958915
0.0700242
0.046839
0.0357018
0.0308221
0.0257437
0.0261322
0.00318369
0.00121073
0.000642911
0.000299239
0.00214247
0.0109022
0.00885623
0.00853533
0.0105304
0.0125435
0.0124487
0.0118378
0.0159918
0.0231629
0.0510514
0.0817276
0.146872
0.159092
0.105008
0.0806283
0.0589596
0.0469698
0.0411971
0.0355831
0.038953
0.00318779
0.00120888
0.000617957
0.000508025
0.00425329
0.0106954
0.00747764
0.00732172
0.00780097
0.00693391
0.0106484
0.0124163
0.0206126
0.0300618
0.0602975
0.0876689
0.0848216
0.101062
0.109566
0.0963352
0.0817341
0.0708174
0.0730877
0.058411
0.067129
0.00318404
0.00123162
0.000594785
0.000646601
0.00567127
0.00921644
0.0068218
0.00644036
0.00599368
0.00663937
0.00736393
0.0136733
0.0211015
0.031865
0.0414033
0.0426887
0.0491032
0.0720972
0.09581
0.101368
0.105939
0.105611
0.100852
0.0819712
0.109264
0.00319083
0.00121729
0.000592825
0.000521981
0.00858561
0.00860788
0.00767916
0.00674235
0.00653151
0.00664906
0.00722191
0.0124082
0.0171457
0.0254361
0.0316765
0.0370868
0.068315
0.077066
0.0730816
0.0868798
0.0780864
0.0683324
0.0942713
0.0901476
0.14769
0.00318847
0.00117972
0.000643978
0.00169101
0.00627608
0.00578516
0.00678133
0.00734083
0.00757005
0.0078497
0.00773511
0.0108447
0.0179251
0.0224851
0.0328073
0.0583244
0.0686196
0.0551915
0.0420291
0.0328349
0.0350148
0.0390572
0.0415429
0.062038
0.144931
0.00318969
0.00114715
0.000624299
0.00212931
0.00505391
0.00704747
0.00878756
0.00876205
0.00840884
0.00804784
0.0074664
0.00948579
0.0168499
0.0186763
0.0622653
0.0609561
0.0466272
0.0318991
0.0235094
0.0233085
0.0231129
0.0251421
0.0282015
0.0428802
0.132542
0.00318272
0.00107579
0.000834011
0.00217079
0.00661926
0.0107938
0.0100292
0.00757678
0.00735436
0.00652077
0.00659365
0.0082506
0.0189677
0.0284181
0.0486537
0.0413245
0.029019
0.0255443
0.0217862
0.0189465
0.0186767
0.022436
0.0235271
0.0306167
0.12174
0.00318356
0.00100431
0.000984969
0.00289334
0.00948211
0.0143951
0.0113101
0.0081902
0.00626145
0.00604985
0.00566771
0.00879362
0.0157855
0.0237307
0.0277464
0.029158
0.0260848
0.0249563
0.0239057
0.0201343
0.0174532
0.0198542
0.0214024
0.0282423
0.102847
0.00316725
0.00118494
0.00117467
0.00574061
0.0158713
0.0195097
0.0130228
0.00871612
0.00656954
0.00608495
0.00602617
0.00875121
0.0127101
0.0177635
0.0181084
0.0188479
0.0189843
0.020754
0.0186224
0.0195557
0.0178345
0.0167012
0.017601
0.0235837
0.08555
0.00308917
0.00187054
0.00337226
0.0098348
0.0308003
0.0286772
0.0149191
0.00938164
0.00710493
0.00618261
0.00606272
0.00740779
0.00920129
0.0119809
0.012952
0.014816
0.0148223
0.0145693
0.014637
0.0150516
0.0147998
0.015208
0.0169409
0.0198121
0.0687835
0.00288981
0.00411821
0.0134347
0.0230011
0.0603327
0.0385036
0.0165948
0.00949417
0.00707311
0.00655469
0.00634625
0.00696393
0.0079977
0.00960175
0.00911904
0.00963213
0.0104785
0.0104927
0.0109624
0.0113321
0.0121775
0.0137956
0.015425
0.0181341
0.0461615
0.00288228
0.0140243
0.0606507
0.0659348
0.0795409
0.0424401
0.0190105
0.00941813
0.00731353
0.00668602
0.00640817
0.00707455
0.00796655
0.00878212
0.00857021
0.00793349
0.00787095
0.00825199
0.00885458
0.00905515
0.00979931
0.0110802
0.0131551
0.0171611
0.0334983
0.00295774
0.0549399
0.129845
0.124745
0.0853013
0.0521112
0.0270407
0.0122452
0.00913708
0.00901327
0.0094228
0.0100913
0.0105078
0.00920878
0.00839301
0.00743184
0.00718502
0.00709937
0.00744269
0.00811597
0.00861776
0.00908278
0.0103434
0.0118739
0.0249801
0.00316294
0.0835368
0.0735439
0.112874
0.0581749
0.0538435
0.0475521
0.0268521
0.0152358
0.0127605
0.0109112
0.0124819
0.0126137
0.010912
0.00960009
0.00837999
0.00701454
0.00676735
0.00704032
0.00728997
0.00806721
0.0084981
0.00903907
0.00921172
0.0140218
0.00295826
0.0481796
0.0479912
0.0473201
0.0380759
0.0519698
0.0712326
0.0839496
0.088437
0.0774838
0.0688095
0.0684759
0.0617958
0.0674078
0.064588
0.0661333
0.0542612
0.0434632
0.0344059
0.0251595
0.0222827
0.0204932
0.0166569
0.0179955
0.0179565
0.00689988
0.0151127
0.0130403
0.0271837
0.0247228
0.0371744
0.0652963
0.0740231
0.0749921
0.060798
0.056348
0.0689318
0.0553601
0.0634506
0.061853
0.0822174
0.0846534
0.0812688
0.078281
0.0761069
0.0745423
0.0708057
0.0652123
0.0627608
0.0607277
0.00945431
0.00791667
0.00706958
0.0051801
0.00472146
0.00474387
0.00465382
0.00554214
0.006647
0.0087551
0.0112971
0.0142037
0.0186339
0.0237007
0.0286474
0.0331431
0.0377526
0.0416185
0.0447206
0.0475507
0.0474368
0.0482698
0.0497653
0.0498906
0.0496765
0.00329113
0.00127289
0.00137764
0.00276166
0.00363255
0.00580072
0.00648738
0.00780224
0.00985447
0.0136602
0.0190464
0.0252611
0.0321844
0.0364368
0.038762
0.0376849
0.0378938
0.0364489
0.0357783
0.0368758
0.0382145
0.0387004
0.0397082
0.042174
0.0415687
0.00317933
0.00119282
0.000609644
0.000874604
0.00109148
0.00124793
0.00205159
0.00450689
0.0093804
0.0154678
0.0206202
0.0246861
0.0289092
0.0275438
0.0273423
0.0252112
0.0214934
0.020024
0.0194765
0.0202447
0.0213342
0.0230966
0.0239088
0.0239976
0.0268475
0.00318128
0.00120169
0.000658612
0.000476191
0.000461048
0.000621613
0.00129033
0.00236889
0.00422946
0.00805768
0.0146259
0.0181393
0.0179564
0.0168447
0.0153964
0.0141355
0.0130407
0.0133345
0.013943
0.0140259
0.0144774
0.0153089
0.0169937
0.0186459
0.0235888
0.00318285
0.00121162
0.000667711
0.000416476
0.000406993
0.00059342
0.0012018
0.00195868
0.00287062
0.00706553
0.0101284
0.014103
0.0152934
0.0168134
0.0185526
0.0192319
0.0207283
0.0216562
0.0203182
0.0202564
0.0209029
0.0210446
0.0198533
0.0198206
0.0214878
0.00318522
0.00121591
0.000661498
0.000417015
0.000411468
0.000540652
0.00116059
0.00213663
0.00353312
0.0110787
0.0143096
0.0223945
0.0240451
0.0257299
0.0263451
0.0262534
0.0297937
0.0297714
0.0288113
0.0260793
0.0248105
0.023912
0.0219652
0.0224069
0.0227274
0.00318553
0.001207
0.000636706
0.000411697
0.000458138
0.000907436
0.00134243
0.00522042
0.0103044
0.0249668
0.0332362
0.0372613
0.0346627
0.0303582
0.0311153
0.0318761
0.0464239
0.044792
0.0385524
0.031538
0.025362
0.0206272
0.0193955
0.0178982
0.0180643
0.0031798
0.00122185
0.000566804
0.00033054
0.00107606
0.00310308
0.00773856
0.0176992
0.0255903
0.0488022
0.0425609
0.0435212
0.0390461
0.0357513
0.0422801
0.0653245
0.0922964
0.0839948
0.0718982
0.0579954
0.0447571
0.0339528
0.0231902
0.0217871
0.0213583
0.00317986
0.00120367
0.000559348
0.00061348
0.00694823
0.0143432
0.0579649
0.0615923
0.051497
0.0531874
0.0444448
0.0377157
0.0367967
0.0463379
0.0753002
0.123095
0.164476
0.156389
0.120625
0.0925988
0.0747839
0.055385
0.0381465
0.0298735
0.0285459
0.00317865
0.00119576
0.000575206
0.00170516
0.0234819
0.0291639
0.0403953
0.0394521
0.0293287
0.0301971
0.0317491
0.0342005
0.0468198
0.0729323
0.129703
0.183076
0.285567
0.269158
0.177104
0.133737
0.107658
0.0767862
0.0546248
0.0538812
0.0511617
0.00318307
0.00118617
0.000587523
0.00146315
0.0157772
0.0129746
0.018497
0.0141261
0.0140154
0.013135
0.0279358
0.0418093
0.0588821
0.0866071
0.170847
0.223512
0.316148
0.300826
0.227842
0.160315
0.1475
0.142409
0.125148
0.119318
0.113128
0.00318186
0.00119761
0.000605629
0.00169122
0.0100186
0.00669763
0.0114093
0.0092291
0.00748057
0.00812557
0.0181958
0.0439294
0.0507329
0.0730455
0.111054
0.137362
0.185383
0.205086
0.222952
0.212835
0.187041
0.22831
0.189762
0.200282
0.210003
0.00318712
0.0011906
0.000620958
0.00192437
0.00797891
0.00759963
0.00672798
0.00652239
0.00668896
0.00688805
0.0166144
0.0337803
0.0419777
0.0587398
0.0792263
0.129203
0.152137
0.152923
0.149344
0.201103
0.197566
0.209284
0.231866
0.250707
0.338481
0.00318808
0.00119645
0.00066319
0.00200063
0.00533415
0.00546107
0.00530249
0.00631088
0.00666999
0.00681432
0.0138632
0.0290966
0.0518667
0.0604828
0.118909
0.108901
0.0904214
0.0915199
0.0761193
0.0823102
0.0879387
0.0938425
0.105303
0.187096
0.386055
0.00320478
0.00113911
0.000709185
0.00175847
0.00392838
0.00544591
0.00583444
0.00645798
0.00718063
0.00732151
0.0120418
0.0358588
0.0670915
0.0946799
0.143638
0.0876222
0.0544461
0.0404182
0.0373237
0.0369327
0.0400809
0.0428742
0.0529975
0.113489
0.363809
0.00319276
0.00113858
0.000792774
0.00154497
0.00439164
0.00686071
0.00705169
0.00658289
0.00664095
0.00707231
0.0118526
0.0465235
0.123791
0.0969556
0.0906749
0.0576516
0.0410884
0.0306611
0.02726
0.0256563
0.0287406
0.0303487
0.0357151
0.0775182
0.328094
0.0031972
0.00105233
0.000927688
0.00150262
0.00633039
0.00991406
0.00858149
0.00684821
0.00568186
0.00639096
0.0128458
0.0435023
0.080973
0.0728932
0.0550005
0.0398547
0.0314259
0.0257383
0.0245325
0.0237451
0.0239492
0.0257598
0.0282452
0.060516
0.27399
0.00318289
0.00104049
0.00105562
0.00170591
0.0115309
0.0148083
0.0112587
0.00734123
0.00609865
0.00585567
0.0127152
0.0283616
0.0427754
0.0480291
0.0355871
0.0282107
0.0226557
0.023727
0.023173
0.0213501
0.0215684
0.0224727
0.0264194
0.0466847
0.196509
0.00315593
0.00122421
0.00158436
0.0038251
0.027418
0.0243962
0.0135283
0.00785254
0.00615617
0.00566947
0.0106693
0.0208588
0.0248375
0.028938
0.0256919
0.0210266
0.0224267
0.0211692
0.0212353
0.0206395
0.0208703
0.0218824
0.0232348
0.0350672
0.135463
0.00290676
0.00250929
0.00602493
0.0179769
0.0457449
0.0311922
0.0139737
0.0077726
0.00636747
0.00594985
0.00907961
0.0168237
0.0176222
0.0160303
0.0159199
0.0138025
0.0163069
0.016895
0.019109
0.0190214
0.0181949
0.0205918
0.0197473
0.0241291
0.0986518
0.00290185
0.00599804
0.030268
0.0555836
0.0577028
0.0351959
0.0142629
0.00782079
0.00673932
0.00626002
0.00854035
0.0164089
0.0174876
0.0136926
0.0142197
0.0103253
0.0116358
0.0127225
0.0131898
0.0144626
0.0147368
0.0160963
0.0165488
0.0180862
0.0522254
0.00291888
0.02173
0.0939587
0.107031
0.067631
0.0476831
0.0212086
0.00888678
0.008449
0.00875681
0.00981903
0.0146404
0.0148582
0.011899
0.0117896
0.00866425
0.00815517
0.00767485
0.00874556
0.00849994
0.0091413
0.011322
0.0123256
0.0169083
0.0234174
0.00299372
0.0532509
0.0677986
0.090752
0.0694679
0.0585395
0.0402221
0.022536
0.0142931
0.0123471
0.0104282
0.0144363
0.014738
0.0125172
0.0108701
0.0091811
0.00801886
0.00754262
0.0075703
0.00737509
0.00747052
0.00818777
0.00895869
0.00949368
0.0201413
0.00292318
0.0486621
0.0530008
0.0352704
0.0402595
0.0557886
0.0709139
0.0694859
0.0672785
0.0673781
0.0595564
0.0795708
0.0665098
0.0864978
0.0808486
0.0867463
0.0717674
0.0555496
0.042175
0.0302588
0.0242433
0.02089
0.0163105
0.0167403
0.0205923
0.00713791
0.0175561
0.0164254
0.0208075
0.0216489
0.037285
0.0663973
0.0744689
0.0619091
0.0607209
0.072676
0.0758626
0.0684259
0.098809
0.0981691
0.114574
0.105446
0.0947772
0.0862211
0.080916
0.0767166
0.0752708
0.0678074
0.0654138
0.063401
0.00951275
0.00784606
0.00738914
0.00577485
0.00450996
0.0047547
0.00476095
0.00598429
0.00901162
0.0119153
0.0141917
0.0168934
0.0202348
0.0240158
0.0284536
0.0329073
0.0374427
0.0408444
0.043815
0.0489284
0.051791
0.0528915
0.0578012
0.0586817
0.0578848
0.00324048
0.00120453
0.00123525
0.00238831
0.00367032
0.00398806
0.0041596
0.00540606
0.00799725
0.0117624
0.0183486
0.0255936
0.0332285
0.0375361
0.041009
0.0427142
0.0442953
0.0458795
0.0470732
0.0490204
0.0491584
0.0468244
0.0464778
0.0458279
0.0438597
0.00317414
0.00123101
0.000595631
0.000633747
0.000781048
0.000820469
0.000974342
0.00202342
0.00625781
0.0142517
0.0201812
0.0248983
0.0284298
0.0312959
0.0338495
0.0348084
0.0337132
0.0314694
0.0314878
0.0302484
0.0310282
0.0292686
0.0273296
0.0265319
0.0273712
0.00318134
0.00120179
0.000672939
0.000485648
0.000376235
0.000411827
0.000576179
0.00128919
0.00400909
0.0074947
0.0123009
0.0183386
0.0284399
0.0323515
0.0311665
0.0307308
0.028305
0.0256054
0.0225739
0.0198803
0.0187038
0.0188571
0.0195496
0.0217809
0.0253828
0.00318215
0.00120601
0.000684991
0.00045153
0.000358336
0.000433223
0.000637394
0.00122026
0.00695874
0.0126641
0.0221903
0.0401834
0.0454326
0.0448104
0.043331
0.0375085
0.0321475
0.0297392
0.0274409
0.0245019
0.0222992
0.0210967
0.0200736
0.0202848
0.0211364
0.00318343
0.00121323
0.0006754
0.000445886
0.000458643
0.000731453
0.000692984
0.0070955
0.0211424
0.0386812
0.0596772
0.0786476
0.0653526
0.0515895
0.0420569
0.0347796
0.0300098
0.0277041
0.0265208
0.0253978
0.0239274
0.0230787
0.0217033
0.0220842
0.0222859
0.00318101
0.00123099
0.000599337
0.000518145
0.000701353
0.00215665
0.00456651
0.0288287
0.0667436
0.0860108
0.0982086
0.0766762
0.0670565
0.0549541
0.0537516
0.050167
0.0440266
0.037081
0.0314296
0.0272923
0.0242381
0.0215437
0.0207097
0.0203022
0.0211452
0.0031803
0.00123046
0.000576617
0.000570018
0.00166717
0.0106511
0.0368313
0.0844665
0.109728
0.114846
0.0835055
0.0690037
0.0766404
0.0717822
0.0817786
0.0855877
0.0820037
0.0745536
0.0592759
0.0471021
0.0350227
0.0275524
0.0234931
0.0216504
0.022126
0.00318133
0.00121609
0.000561754
0.00095119
0.00556717
0.0779688
0.140678
0.120936
0.0985489
0.070061
0.0861111
0.0780401
0.0868975
0.108196
0.139812
0.147155
0.141542
0.105894
0.0824364
0.0690616
0.0597512
0.0529728
0.0441833
0.0329986
0.0332183
0.00318418
0.00120549
0.000585249
0.00336417
0.0416915
0.0661752
0.0966125
0.0814494
0.0719009
0.0686717
0.0816547
0.0956521
0.110426
0.168594
0.229052
0.287365
0.288539
0.202913
0.132232
0.106872
0.0958319
0.0950495
0.0892724
0.0882863
0.107042
0.00319473
0.00117426
0.000632291
0.00447661
0.0284997
0.0376874
0.0526892
0.0387708
0.0372189
0.0391386
0.0866055
0.108603
0.127048
0.211487
0.331118
0.386145
0.425727
0.340797
0.233071
0.197205
0.170054
0.168149
0.179643
0.178052
0.265698
0.00319108
0.00118049
0.000661593
0.00528291
0.0176325
0.0229515
0.030516
0.0231334
0.0198985
0.0183554
0.0669962
0.0884923
0.111786
0.200904
0.292183
0.342995
0.413242
0.405414
0.427149
0.358735
0.350885
0.362855
0.363467
0.349624
0.500881
0.00319425
0.0011701
0.000733864
0.00561066
0.0138902
0.0154598
0.0168949
0.0145941
0.012832
0.0140268
0.0647249
0.0837847
0.102395
0.160995
0.223914
0.23372
0.228801
0.280432
0.339463
0.402647
0.388057
0.456859
0.425909
0.487624
0.796024
0.00320061
0.00117159
0.000810868
0.00473079
0.00889328
0.0113528
0.0118701
0.0102907
0.0101416
0.0105008
0.0637515
0.0887344
0.118165
0.179471
0.15665
0.131241
0.137929
0.150443
0.15255
0.216954
0.21861
0.209427
0.255038
0.474812
0.921897
0.00321219
0.00115829
0.000858516
0.00368957
0.00761833
0.00880545
0.00955029
0.00911574
0.00824479
0.00892798
0.0762236
0.118085
0.158829
0.180837
0.12943
0.090984
0.0706685
0.0639532
0.0537042
0.0546624
0.0510997