/*--------------------------------*- C++ -*----------------------------------*\
  =========                 |
  \\      /  F ield         | OpenFOAM: The Open Source CFD Toolbox
   \\    /   O peration     | Website:  https://openfoam.org
    \\  /    A nd           | Version:  11
     \\/     M anipulation  |
\*---------------------------------------------------------------------------*/
FoamFile
{
    format      ascii;
    class       volScalarField;
    location    "45";
    object      nut;
}
// * * * * * * * * * * * * * * * * * * * * * * * * * * * * * * * * * * * * * //

dimensions      [0 2 -1 0 0 0 0];

internalField   nonuniform List<scalar> 
17196
(
0.10303
0.088135
0.0597394
0.0468857
0.059071
0.0560378
0.0392331
0.0323968
0.0320261
0.034412
0.0350067
0.0381492
0.0474016
0.0601733
0.0698257
0.0808002
0.08758
0.094952
0.101102
0.104867
0.108195
0.11012
0.110015
0.110628
0.0948351
0.221456
0.181882
0.133337
0.107377
0.102087
0.0724189
0.0590343
0.039197
0.0328963
0.0329987
0.0352729
0.0382068
0.0505613
0.0659554
0.0758265
0.0865149
0.0965508
0.108539
0.116816
0.12655
0.135594
0.143516
0.153781
0.158733
0.164266
0.227445
0.196159
0.146691
0.117454
0.101847
0.0756944
0.0506406
0.0358283
0.031509
0.0319554
0.0325636
0.0363111
0.0482372
0.0613838
0.0716119
0.0839378
0.0930246
0.104087
0.111016
0.120016
0.127267
0.134183
0.14257
0.14693
0.152331
0.226353
0.194254
0.152651
0.117803
0.104939
0.0738361
0.0451333
0.038313
0.0343752
0.0308084
0.0300689
0.0319997
0.0433372
0.0592443
0.0694985
0.079985
0.0921953
0.103394
0.110588
0.117371
0.123568
0.12952
0.137151
0.140398
0.147616
0.226724
0.193244
0.146487
0.1186
0.104471
0.0596301
0.0426144
0.0419675
0.0363808
0.028732
0.0272599
0.0308296
0.0405005
0.0502623
0.061051
0.075811
0.0856709
0.0985717
0.105972
0.11709
0.123666
0.129999
0.136798
0.139688
0.147012
0.227688
0.194311
0.142442
0.117873
0.0811593
0.0525278
0.0444982
0.0479831
0.0373675
0.0284469
0.0261538
0.028145
0.0276076
0.0370491
0.0491777
0.0602086
0.070562
0.0861641
0.0952725
0.108218
0.115214
0.124424
0.131509
0.135118
0.142395
0.230555
0.1921
0.144803
0.103157
0.0687474
0.0504878
0.0494184
0.0504721
0.0359393
0.0278647
0.0279976
0.0307151
0.0279091
0.0331835
0.0384375
0.0490782
0.0595853
0.072719
0.0824184
0.0950418
0.102745
0.110638
0.117576
0.122239
0.13173
0.22693
0.190535
0.151399
0.0963836
0.0887071
0.0491998
0.0559937
0.0487534
0.0357721
0.0308614
0.0328819
0.0321791
0.028485
0.0288403
0.0314122
0.0411802
0.0526409
0.0672738
0.0778154
0.0865185
0.0932167
0.0977311
0.106994
0.111255
0.123593
0.226741
0.185652
0.141052
0.0953477
0.0880332
0.0506689
0.0638744
0.0484012
0.0333339
0.0306223
0.034423
0.034675
0.0315876
0.0304755
0.0330221
0.0399247
0.053616
0.0665124
0.0752551
0.0812478
0.0895873
0.0947474
0.105388
0.109468
0.122177
0.218105
0.184039
0.148614
0.109109
0.0619681
0.0531322
0.0705344
0.0585396
0.0371919
0.0346921
0.0365032
0.03638
0.0345743
0.0330167
0.0361151
0.040882
0.0477808
0.0546111
0.0664582
0.0729949
0.085506
0.0915047
0.103899
0.10694
0.120486
0.212896
0.17302
0.147371
0.118782
0.0564074
0.0585499
0.0702978
0.0580376
0.0400589
0.0388196
0.0358826
0.0373425
0.0423658
0.0397633
0.0403953
0.0428173
0.0458609
0.0504196
0.0608973
0.067966
0.0816204
0.0883897
0.101856
0.1043
0.120695
0.199761
0.183634
0.172355
0.108753
0.0536899
0.0655247
0.0702903
0.056805
0.0368884
0.0459726
0.044407
0.0500879
0.05119
0.045786
0.0491413
0.0487305
0.0483652
0.0529862
0.0636652
0.0715832
0.0844953
0.0880158
0.103545
0.105258
0.122988
0.197141
0.178964
0.180528
0.0759601
0.0587453
0.0705346
0.0686717
0.0524493
0.0431623
0.0528352
0.0495581
0.0605277
0.0598145
0.050873
0.0587341
0.0576564
0.0525385
0.0620412
0.0696923
0.0774235
0.0847585
0.0882769
0.100566
0.103215
0.116616
0.192736
0.194265
0.155681
0.0678782
0.0656931
0.0773797
0.0834597
0.0559647
0.0486637
0.0557686
0.0550652
0.0707916
0.057771
0.0600871
0.0658195
0.0579488
0.0658931
0.0726124
0.0761894
0.0757059
0.0798572
0.0798938
0.0900669
0.0942557
0.111773
0.197351
0.198332
0.121585
0.0506096
0.0805629
0.0845173
0.0816255
0.0589576
0.0592333
0.0614626
0.0720447
0.0766819
0.0807038
0.0829178
0.0789531
0.0871418
0.0889993
0.0853346
0.0841476
0.0790067
0.0772969
0.081373
0.0889231
0.0930351
0.108162
0.199272
0.193975
0.0944159
0.0465297
0.104396
0.100652
0.0959428
0.0695217
0.0736863
0.0851251
0.0984095
0.118503
0.10892
0.108472
0.108815
0.112983
0.109554
0.102289
0.0863352
0.0822332
0.0842227
0.0840328
0.0919155
0.0933246
0.105572
0.214333
0.165458
0.0775175
0.0444144
0.136344
0.128504
0.0966098
0.0886831
0.0940064
0.107481
0.129721
0.150476
0.149487
0.143103
0.145863
0.139863
0.130738
0.116591
0.0989775
0.0936478
0.093346
0.0929531
0.0999027
0.103032
0.109404
0.206813
0.138752
0.0654191
0.0570721
0.18287
0.148888
0.0983174
0.0970186
0.112611
0.135501
0.174009
0.222232
0.186037
0.169784
0.168416
0.167044
0.14731
0.13959
0.122134
0.120915
0.108028
0.104617
0.107157
0.110982
0.116127
0.202257
0.127688
0.0586133
0.0649616
0.239308
0.189452
0.125937
0.118086
0.139066
0.176468
0.256959
0.273636
0.229132
0.191043
0.194001
0.176986
0.160945
0.14831
0.144579
0.133991
0.118492
0.120737
0.116177
0.117919
0.125837
0.193148
0.109764
0.0538213
0.0752082
0.296899
0.231188
0.155163
0.142456
0.177671
0.242385
0.356772
0.344321
0.284508
0.231142
0.211628
0.191408
0.174358
0.16098
0.142758
0.139745
0.135381
0.117978
0.124322
0.127009
0.131743
0.172437
0.0952428
0.0524573
0.066752
0.33299
0.281604
0.193238
0.179684
0.235747
0.327108
0.440024
0.45009
0.366024
0.299736
0.237575
0.220839
0.194795
0.164446
0.154802
0.148523
0.138804
0.136181
0.13305
0.123938
0.132787
0.165053
0.0904075
0.0570607
0.0523566
0.29803
0.301083
0.213361
0.218265
0.307467
0.376834
0.525396
0.524473
0.428947
0.332377
0.292703
0.258921
0.249013
0.22492
0.194687
0.178044
0.162174
0.164551
0.161747
0.159614
0.157158
0.197579
0.0634655
0.0561933
0.0342675
0.202724
0.336258
0.274465
0.269485
0.442793
0.524225
0.616906
0.622258
0.492957
0.454654
0.392612
0.37473
0.342468
0.307913
0.294371
0.252095
0.232485
0.207674
0.190874
0.192278
0.180926
0.209027
0.0627364
0.0446378
0.030608
0.241138
0.388748
0.466511
0.484729
0.499659
0.504294
0.486709
0.516578
0.498218
0.546947
0.476985
0.514625
0.452754
0.421911
0.41836
0.371736
0.313097
0.279936
0.259688
0.250119
0.222611
0.100441
0.0441291
0.0193883
0.0358327
0.108543
0.138822
0.204384
0.277224
0.196486
0.197207
0.218346
0.331354
0.311697
0.329372
0.259462
0.216522
0.187551
0.161838
0.138453
0.124628
0.11458
0.103642
0.0926816
0.0980029
0.0892272
0.111656
0.089084
0.0640234
0.0435796
0.0486734
0.0372864
0.0252801
0.026113
0.0257356
0.026623
0.0301304
0.0374501
0.0431113
0.0492754
0.051918
0.0566231
0.06116
0.063857
0.0678343
0.072259
0.0768982
0.0799247
0.08502
0.089951
0.0913989
0.0107995
0.0123051
0.0256946
0.0786906
0.153487
0.115177
0.0825709
0.0790622
0.078463
0.0822449
0.0949015
0.10581
0.118325
0.132907
0.147044
0.167732
0.190562
0.200821
0.211772
0.223103
0.235715
0.247085
0.268834
0.295767
0.35741
0.0100707
0.0115495
0.0195782
0.0429185
0.0736793
0.177076
0.199871
0.150957
0.171438
0.2036
0.26112
0.272623
0.305578
0.310314
0.325028
0.351293
0.351417
0.351384
0.34551
0.359255
0.372621
0.396378
0.417869
0.461013
0.560529
0.0101424
0.011458
0.0202887
0.0367231
0.0764006
0.168379
0.205106
0.230358
0.2988
0.377797
0.36264
0.318284
0.209627
0.250244
0.305613
0.38774
0.457412
0.556227
0.532863
0.521385
0.531595
0.560936
0.602093
0.692961
0.926401
0.0102571
0.0112588
0.021245
0.0375649
0.0908193
0.19152
0.278648
0.357159
0.380466
0.289701
0.190049
0.148321
0.124271
0.164161
0.178285
0.211753
0.235627
0.300093
0.363409
0.473677
0.61675
0.743764
0.746787
0.868819
0.882351
0.0103783
0.0109387
0.0208445
0.0433013
0.0974672
0.239937
0.317214
0.443139
0.283729
0.146444
0.124586
0.11921
0.10263
0.095934
0.103896
0.118201
0.167873
0.233885
0.298918
0.398606
0.507524
0.638494
0.689794
0.732707
0.69884
0.0105076
0.0104058
0.021052
0.0472085
0.10256
0.229274
0.401837
0.33257
0.175899
0.106753
0.118832
0.109079
0.0913815
0.0909922
0.0927453
0.104407
0.198989
0.279107
0.362894
0.436695
0.487947
0.48079
0.46997
0.489408
0.458263
0.0105064
0.0101373
0.0232036
0.0498997
0.107765
0.297424
0.48642
0.267631
0.138238
0.099744
0.110091
0.111567
0.093208
0.0936966
0.0967735
0.13869
0.306573
0.4219
0.497509
0.538901
0.503086
0.442987
0.422369
0.422471
0.419528
0.0104882
0.010088
0.02394
0.0497035
0.0990052
0.465853
0.413375
0.177029
0.0919662
0.0734849
0.10337
0.0810555
0.0855679
0.0940577
0.117507
0.198916
0.481082
0.594919
0.593041
0.536596
0.468652
0.421066
0.412217
0.421725
0.4299
0.0103894
0.0105346
0.0247674
0.0533487
0.147627
0.460757
0.317368
0.116351
0.087316
0.0737681
0.0729548
0.0706696
0.0878739
0.0951283
0.17367
0.320006
0.524013
0.547896
0.412868
0.442746
0.461133
0.407849
0.472756
0.42447
0.477626
0.0104377
0.0109806
0.0257678
0.0505707
0.403202
0.417469
0.186457
0.105663
0.0857447
0.0818308
0.0799663
0.0842924
0.100525
0.124904
0.222597
0.350341
0.298077
0.299521
0.402364
0.519271
0.554919
0.462231
0.500609
0.47085
0.592383
0.0104243
0.011244
0.0257794
0.050032
0.430771
0.324256
0.161193
0.102065
0.10308
0.0953475
0.0974151
0.103639
0.106071
0.151152
0.221034
0.218609
0.238001
0.296167
0.451097
0.491223
0.626833
0.529866
0.614293
0.572306
0.775187
0.0105598
0.0110297
0.0237408
0.0562337
0.418974
0.255709
0.124789
0.113909
0.111841
0.102127
0.105659
0.111228
0.111881
0.130027
0.155347
0.173703
0.260389
0.388649
0.453099
0.575326
0.555166
0.597702
0.673401
0.666806
0.914381
0.0107207
0.0106792
0.0223164
0.0840791
0.316911
0.201597
0.153839
0.125142
0.111948
0.0984319
0.106233
0.107657
0.114723
0.122753
0.138984
0.199946
0.299357
0.361665
0.401938
0.366637
0.387577
0.337665
0.322659
0.40441
0.846178
0.0110218
0.00920667
0.019174
0.100347
0.300842
0.227591
0.162456
0.126142
0.102755
0.0973633
0.103381
0.100204
0.12155
0.125042
0.174126
0.242718
0.305959
0.279639
0.3305
0.287105
0.279736
0.321592
0.291716
0.39149
0.825463
0.0110555
0.00881437
0.0216217
0.13099
0.320853
0.267163
0.192657
0.132158
0.12408
0.110331
0.104384
0.111636
0.120464
0.163894
0.211401
0.267125
0.284784
0.301486
0.2524
0.265668
0.282118
0.275594
0.321874
0.321777
0.757367
0.0112496
0.00878864
0.0232135
0.177411
0.417219
0.323367
0.218786
0.171272
0.165416
0.151912
0.139359
0.121594
0.146523
0.152907
0.175995
0.189474
0.26416
0.220708
0.27563
0.277909
0.288031
0.247799
0.305551
0.316752
0.668493
0.0113159
0.00977489
0.0259157
0.285273
0.49267
0.410614
0.276006
0.209114
0.176992
0.158463
0.15438
0.145614
0.155672
0.159774
0.179897
0.195262
0.206347
0.189137
0.252149
0.236546
0.235865
0.229224
0.259261
0.286086
0.572292
0.0103222
0.0126649
0.0229272
0.446126
0.660832
0.540505
0.349235
0.222625
0.185308
0.176526
0.129368
0.155327
0.152998
0.168323
0.176379
0.200431
0.222635
0.216898
0.235358
0.264856
0.293433
0.301572
0.327287
0.350191
0.563828
0.00975497
0.0174646
0.0908476
0.635485
0.940445
0.640606
0.42061
0.248246
0.204043
0.164286
0.134964
0.139523
0.147769
0.159541
0.170057
0.179116
0.224126
0.230242
0.242678
0.268367
0.304706
0.32696
0.373435
0.388269
0.55215
0.00902682
0.0632044
0.393364
0.649784
1.01936
0.791941
0.586998
0.29361
0.233882
0.1999
0.152897
0.171813
0.151164
0.166977
0.1543
0.168202
0.217801
0.228945
0.23519
0.263998
0.295121
0.321075
0.358819
0.388989
0.49309
0.00889187
0.423158
0.760048
0.894811
1.24562
0.927411
0.729163
0.35688
0.29677
0.274883
0.226658
0.246248
0.209926
0.194522
0.165457
0.145991
0.165701
0.201873
0.21095
0.227356
0.255996
0.270075
0.303737
0.320513
0.419193
0.00946544
0.943416
0.745428
0.920405
1.24349
0.969205
0.843934
0.574345
0.34932
0.263804
0.240691
0.254009
0.239328
0.181968
0.190418
0.173523
0.166537
0.168446
0.175507
0.189688
0.219234
0.256775
0.296188
0.340609
0.371387
0.00815274
0.178055
0.177705
0.583764
0.429912
0.501505
0.673717
0.763099
0.654178
0.543232
0.4889
0.48681
0.494025
0.487722
0.544553
0.706887
0.695283
0.7254
0.73521
0.737926
0.610904
0.553469
0.546429
0.562821
0.461746
0.0825639
0.0765828
0.0474111
0.064386
0.161057
0.201379
0.251866
0.289551
0.297906
0.319483
0.325063
0.438549
0.332212
0.376025
0.311547
0.316746
0.292898
0.270753
0.24526
0.223523
0.200376
0.188005
0.176728
0.175624
0.155548
0.116018
0.0887201
0.0671987
0.0470696
0.0431715
0.039366
0.0246188
0.0227583
0.0252475
0.0273389
0.030006
0.0387462
0.0466769
0.053198
0.057385
0.0620979
0.0666737
0.0667261
0.0660981
0.0659417
0.0674471
0.070755
0.0763705
0.0808613
0.0859307
0.010039
0.00890161
0.0152087
0.0654861
0.124718
0.200783
0.159745
0.117079
0.12428
0.158775
0.177195
0.219885
0.254389
0.257449
0.265102
0.298814
0.318265
0.328518
0.336125
0.342389
0.342017
0.338684
0.358185
0.377292
0.477182
0.00940821
0.00861199
0.0079909
0.0173979
0.027727
0.0587347
0.16966
0.256764
0.287627
0.342209
0.380467
0.470857
0.417217
0.441424
0.446114
0.478755
0.488547
0.492794
0.505434
0.550428
0.567093
0.560891
0.576904
0.594601
0.635304
0.00938694
0.0087098
0.0082553
0.0106905
0.0171001
0.0521955
0.125456
0.19233
0.291755
0.376226
0.426708
0.350305
0.319977
0.304825
0.285357
0.267209
0.271939
0.285567
0.325568
0.368197
0.41787
0.472094
0.55409
0.649996
0.739859
0.00938049
0.00881186
0.0079656
0.0103674
0.0178201
0.0546467
0.106203
0.182249
0.267554
0.277009
0.265442
0.211508
0.192946
0.199357
0.166407
0.16769
0.182075
0.219185
0.255916
0.288916
0.333304
0.402749
0.443478
0.512226
0.552965
0.00937978
0.00884264
0.00775612
0.0110921
0.0212136
0.0489176
0.120686
0.236007
0.245926
0.210774
0.206422
0.170059
0.210269
0.162532
0.145019
0.177436
0.209888
0.297777
0.350759
0.414607
0.415683
0.400127
0.413335
0.441554
0.434149
0.00938484
0.00877155
0.00772281
0.011702
0.021704
0.0469225
0.167207
0.245309
0.220924
0.257678
0.286455
0.210873
0.180014
0.158604
0.171224
0.217449
0.294005
0.576969
0.586438
0.540064
0.447745
0.395715
0.387502
0.375218
0.402544
0.00939011
0.00871628
0.00805778
0.0124964
0.0229574
0.0450723
0.212879
0.208033
0.1892
0.237355
0.228003
0.211695
0.190072
0.185286
0.235143
0.357652
0.6803
0.978713
0.938877
0.759981
0.556453
0.464013
0.432166
0.433989
0.441878
0.00939944
0.00865055
0.00814436
0.0131811
0.0157707
0.100867
0.203419
0.14611
0.280366
0.252717
0.240131
0.213075
0.186911
0.211601
0.330792
0.494381
1.29812
1.38747
1.20143
0.996165
0.744537
0.625438
0.582862
0.524709
0.549996
0.00939195
0.00870915
0.00826341
0.00561391
0.0438996
0.218144
0.176187
0.172954
0.206601
0.222157
0.198116
0.175573
0.222172
0.270585
0.553165
0.883683
1.54298
1.71431
1.23032
1.06384
0.865336
0.758914
0.710741
0.65537
0.744327
0.00940082
0.00869849
0.00810989
0.00927076
0.0810164
0.207154
0.148663
0.139045
0.140615
0.119323
0.173105
0.18028
0.262671
0.337707
0.679268
0.96599
0.993116
1.20793
1.30393
1.23698
1.15529
1.0643
1.16638
0.982258
1.1766
0.00939374
0.00880154
0.007749
0.0111465
0.0988829
0.171256
0.122554
0.120311
0.103393
0.111947
0.120157
0.195446
0.254433
0.381214
0.505965
0.553206
0.678759
0.875358
1.15273
1.28525
1.45579
1.53969
1.57004
1.33477
1.82583
0.00940618
0.0087378
0.00776743
0.00852823
0.146989
0.156014
0.141506
0.110757
0.106851
0.10708
0.113085
0.171495
0.220053
0.362847
0.442455
0.536202
0.858296
0.912786
0.906819
1.16751
1.11294
1.03302
1.49935
1.46245
2.40497
0.00939527
0.0085159
0.00810846
0.0258061
0.100002
0.1014
0.111303
0.107319
0.102707
0.108474
0.108656
0.156941
0.271452
0.351441
0.511957
0.740845
0.782559
0.648298
0.523471
0.441059
0.499415
0.59264
0.656384
0.998861
2.34049
0.00939901
0.00845773
0.00754774
0.0305775
0.0839772
0.117179
0.128286
0.126538
0.116686
0.104965
0.1059
0.140855
0.243383
0.269985
0.770338
0.646636
0.526153
0.390694
0.30741
0.320436
0.333953
0.384823
0.451734
0.711307
2.21461
0.0094131
0.00817563
0.00908034
0.0306466
0.110955
0.174747
0.147447
0.112984
0.106092
0.0854455
0.0906629
0.120454
0.267096
0.36931
0.545162
0.458004
0.342727
0.327775
0.294096
0.265689
0.274216
0.347994
0.382874
0.528187
2.12503
0.00947338
0.00767691
0.00980833
0.0417848
0.144654
0.213925
0.170037
0.124563
0.0961336
0.0855587
0.0789181
0.122652
0.211384
0.288381
0.327169
0.347758
0.318765
0.321161
0.317061
0.281463
0.255038
0.311381
0.35466
0.48981
1.86973
0.00939167
0.00848675
0.0117295
0.0848923
0.247662
0.282155
0.187554
0.127537
0.0958006
0.0900921
0.0899082
0.124164
0.172872
0.228563
0.217728
0.232881
0.241454
0.267477
0.248444
0.276239
0.272484
0.269257
0.300488
0.413622
1.59027
0.0091818
0.0114291
0.0357336
0.145087
0.419187
0.388539
0.208543
0.136295
0.111188
0.0935908
0.0884447
0.10438
0.126489
0.160752
0.168252
0.197876
0.200759
0.198075
0.204872
0.220455
0.235305
0.254175
0.295138
0.34543
1.27586
0.00853264
0.0253709
0.162345
0.341657
0.773745
0.51334
0.243871
0.152745
0.115886
0.101656
0.0995502
0.101475
0.110942
0.134986
0.126835
0.136296
0.156629
0.158545
0.166548
0.174592
0.195678
0.236166
0.271526
0.317001
0.868774
0.00844821
0.0996961
0.843707
1.09698
0.958971
0.58475
0.281351
0.157449
0.117243
0.104139
0.104353
0.104726
0.116
0.13183
0.127697
0.115352
0.11949
0.131896
0.147078
0.151298
0.161748
0.188578
0.221442
0.283907
0.587428
0.00880315
0.491493
1.9296
1.82733
1.08632
0.734725
0.440445
0.198484
0.1484
0.138975
0.147565
0.148488
0.156001
0.137831
0.130349
0.117425
0.11034
0.113164
0.124992
0.142655
0.152952
0.161149
0.181717
0.203328
0.391199
0.00962479
1.03686
1.19835
1.43108
0.837049
0.792134
0.69169
0.424992
0.230226
0.18561
0.161434
0.188575
0.184111
0.165113
0.142918
0.121064
0.104395
0.10546
0.116332
0.127957
0.147887
0.15897
0.174897
0.179689
0.255104
0.00863563
0.293047
0.288961
0.512627
0.37337
0.537603
0.985068
0.911948
0.775543
0.581358
0.462846
0.425478
0.406528
0.435553
0.446576
0.574212
0.569419
0.51981
0.423576
0.326596
0.308809
0.299534
0.26587
0.301311
0.30219
0.0682081
0.0998117
0.0601822
0.137134
0.109209
0.128536
0.239413
0.312669
0.401234
0.386344
0.427305
0.502766
0.333126
0.31055
0.256277
0.301154
0.283043
0.252842
0.229048
0.210655
0.196027
0.178281
0.157442
0.148504
0.134987
0.116157
0.0855837
0.0655295
0.0495261
0.0379446
0.0325352
0.027541
0.027389
0.0278091
0.0317936
0.0360164
0.0399782
0.0467492
0.054017
0.0605082
0.0660313
0.0722257
0.0775764
0.0816756
0.0851375
0.0837309
0.085089
0.088729
0.0915749
0.0935937
0.00978664
0.00914738
0.0176849
0.0624152
0.0903549
0.14847
0.180745
0.141097
0.136664
0.162124
0.202361
0.256073
0.321263
0.366838
0.40638
0.418938
0.455832
0.475818
0.505708
0.544254
0.545981
0.505681
0.492431
0.489014
0.547285
0.00938887
0.00860508
0.00730406
0.015162
0.0245885
0.0336562
0.06367
0.14738
0.304476
0.345023
0.37988
0.436974
0.474394
0.463714
0.501007
0.532471
0.557266
0.543936
0.546746
0.571094
0.600645
0.651327
0.677213
0.644827
0.546321
0.00938698
0.0085739
0.00794712
0.00819829
0.0102244
0.0168788
0.0388338
0.072274
0.131581
0.245755
0.429824
0.4961
0.477088
0.447207
0.41043
0.361684
0.329973
0.332441
0.34747
0.348429
0.379063
0.394373
0.439141
0.499329
0.624736
0.00938612
0.00857896
0.00802224
0.00732785
0.00927475
0.0162042
0.0339181
0.0573562
0.0824938
0.183622
0.248572
0.316762
0.31265
0.300555
0.316876
0.318067
0.333627
0.334793
0.326756
0.32509
0.3568
0.401583
0.427342
0.484081
0.545126
0.00939241
0.00856963
0.00800703
0.00753906
0.0095858
0.0139362
0.0315203
0.0598379
0.0958344
0.199368
0.239135
0.312919
0.282131
0.30142
0.307888
0.315648
0.372446
0.385828
0.39843
0.386197
0.399642
0.418724
0.427214
0.487671
0.51689
0.00939485
0.00851069
0.00780377
0.00773785
0.010819
0.0224844
0.0368062
0.139706
0.160565
0.325923
0.340925
0.355734
0.34114
0.315707
0.345272
0.372347
0.566633
0.57932
0.54166
0.482614
0.428932
0.38176
0.397812
0.401643
0.424984
0.00938171
0.00865899
0.00709157
0.00639516
0.0255314
0.0753552
0.175486
0.348753
0.311029
0.486167
0.393504
0.420663
0.395898
0.377086
0.447527
0.694408
0.97202
0.932827
0.893903
0.805726
0.700272
0.593823
0.458793
0.479205
0.493633
0.00938612
0.00861898
0.00721819
0.0119592
0.133149
0.237951
0.824654
0.78435
0.580103
0.523463
0.443
0.374794
0.362063
0.444565
0.697847
1.1564
1.5245
1.53655
1.33093
1.15223
1.04372
0.869513
0.67638
0.595265
0.593864
0.00938266
0.00860065
0.00755826
0.0315823
0.376064
0.432057
0.561741
0.543733
0.385157
0.344559
0.331079
0.33358
0.437618
0.643581
1.1632
1.68457
2.50126
2.43907
1.76459
1.51797
1.37562
1.11157
0.889609
0.939392
0.950518
0.00939524
0.00855614
0.00782655
0.0271139
0.243357
0.186296
0.281156
0.210228
0.215014
0.183705
0.302426
0.399541
0.544959
0.774671
1.64302
2.02265
2.87328
2.63996
2.10856
1.65054
1.69415
1.83141
1.78245
1.81559
1.84329
0.00939043
0.0085872
0.00814255
0.0302829
0.146662
0.0959611
0.179096
0.145354
0.122157
0.130696
0.218126
0.432858
0.481662
0.712403
1.12341
1.47802
1.86897
2.07739
2.33108
2.29756
2.16304
2.79691
2.44984
2.71909
2.95964
0.00939192
0.00855626
0.00851195
0.0317221
0.107634
0.109208
0.104602
0.101613
0.109709
0.112213
0.217101
0.375769
0.486234
0.672366
0.92063
1.3819
1.55636
1.68583
1.76282
2.37359
2.34582
2.65115
3.04792
3.25277
4.47869
0.00940077
0.00855204
0.00880156
0.0299642
0.0703363
0.0769513
0.079911
0.0950588
0.0981516
0.0987341
0.186639
0.357838
0.638565
0.726397
1.23979
1.05602
0.984651
1.10167
0.940995
1.03516
1.13711
1.24924
1.38266
2.43657
5.00177
0.00945076
0.00808009
0.00939269
0.0246285
0.0517118
0.0730893
0.0837145
0.0917611
0.100117
0.096984
0.152863
0.417932
0.745501
0.9639
1.29098
0.892063
0.633369
0.499926
0.493485
0.502741
0.570508
0.637037
0.778737
1.63215
4.94742
0.00940629
0.00812354
0.00980683
0.0193232
0.05877
0.095845
0.100046
0.0898191
0.089195
0.0896577
0.144564
0.498604
1.16678
0.900993
0.90135
0.638007
0.501777
0.407866
0.378253
0.367172
0.425502
0.473837
0.575463
1.2329
4.89649
0.00941472
0.00775853
0.0102575
0.0188822
0.0848663
0.129888
0.115275
0.0973691
0.0762978
0.083725
0.150556
0.397061
0.776587
0.752051
0.596067
0.467803
0.390336
0.339627
0.336373
0.340186
0.354984
0.408825
0.472921
1.02734
4.484
0.00943118
0.00780973
0.0105806
0.0206234
0.154142
0.188096
0.163049
0.102803
0.0863967
0.0800883
0.154493
0.26147
0.441781
0.546087
0.413448
0.346591
0.28828
0.309339
0.318556
0.311942
0.343114
0.375692
0.458043
0.835871
3.49561
0.00936135
0.00883934
0.0152728
0.0493347
0.33835
0.31099
0.18722
0.109313
0.0876106
0.0791409
0.132486
0.213826
0.278062
0.361802
0.333832
0.28249
0.300059
0.290103
0.301418
0.314206
0.351832
0.382189
0.412926
0.636051
2.49503
0.00864332
0.0157115
0.0591856
0.23818
0.553678
0.392759
0.217141
0.114118
0.0897128
0.081703
0.115429
0.192996
0.211731
0.21078
0.2265
0.20807
0.248077
0.25252
0.292264
0.294518
0.306582
0.36035
0.352765
0.440853
1.83468
0.00859318
0.0379799
0.3442
0.760052
0.678897
0.477426
0.232865
0.119831
0.094759
0.088053
0.117445
0.207521
0.222763
0.183344
0.206267
0.166499
0.19766
0.223502
0.227765
0.246085
0.263083
0.298719
0.307553
0.3451
1.01122
0.00862141
0.153859
1.3311
1.49509
0.868008
0.687927
0.339253
0.128738
0.11403
0.11636
0.13331
0.198578
0.204166
0.160108
0.165454
0.130016
0.133928
0.135415
0.158764
0.163625
0.175239
0.220661
0.22099
0.288953
0.421338
0.0088713
0.481768
1.08933
1.3998
0.992637
0.915753
0.569227
0.296907
0.187663
0.158628
0.141188
0.196171
0.200971
0.175755
0.154141
0.133003
0.117118
0.122732
0.131316
0.135638
0.140886
0.16335
0.179633
0.181367
0.33674
0.00840828
0.38681
0.350298
0.637564
0.284998
0.68063
1.03049
0.76254
0.572189
0.495363
0.384665
0.487967
0.446004
0.533368
0.544984
0.693696
0.755266
0.654461
0.532916
0.410554
0.344048
0.341446
0.278285
0.26866
0.328491
0.0739243
0.091886
0.0706889
0.0872567
0.0883605
0.115665
0.222534
0.303856
0.332733
0.380126
0.467535
0.438335
0.347013
0.433047
0.377525
0.39853
0.341938
0.291888
0.25385
0.228279
0.208014
0.197667
0.172559
0.163698
0.159299
0.116775
0.0807098
0.0635962
0.0475752
0.0336838
0.0293152
0.0259653
0.0282546
0.0364367
0.0422002
0.0455336
0.0497805
0.0551006
0.0613133
0.0690072
0.0769508
0.0858803
0.0932393
0.0970715
0.101241
0.100063
0.0984044
0.107284
0.111551
0.114138
0.00958364
0.00864335
0.0152317
0.0513973
0.0997264
0.108791
0.119233
0.155363
0.15518
0.1743
0.216358
0.255197
0.307754
0.346104
0.374542
0.371037
0.341791
0.294175
0.266776
0.281206
0.321561
0.377787
0.449176
0.471171
0.546321
0.00936452
0.00879853
0.00709562
0.0109802
0.0174371
0.022376
0.0306214
0.0644672
0.18903
0.362727
0.384272
0.460815
0.564429
0.613461
0.699747
0.743217
0.751446
0.69912
0.669261
0.64457
0.688147
0.657665
0.626298
0.622814
0.552885
0.00938546
0.0085392
0.00807344
0.00822155
0.00837599
0.0111491
0.017442
0.0376338
0.106183
0.18365
0.272531
0.393236
0.549156
0.577545
0.558709
0.633923
0.586343
0.515806
0.440134
0.399587
0.396617
0.411166
0.438173
0.501996
0.59759
0.00938353
0.00855067
0.0080749
0.0079883
0.0081521
0.0115863
0.0180927
0.0318312
0.158553
0.220907
0.325811
0.450297
0.459425
0.463194
0.474789
0.425814
0.399721
0.393372
0.391149
0.37714
0.374589
0.388878
0.409905
0.451819
0.508127
0.00938848
0.00854043
0.00807761
0.00824977
0.0109144
0.0185457
0.0178
0.150752
0.300083
0.398311
0.486235
0.620413
0.537073
0.474468
0.431339
0.391798
0.368853
0.36249
0.368477
0.374277
0.380321
0.393079
0.405725
0.447603
0.501054
0.00938273
0.0086403
0.00730027
0.00966615
0.0164542
0.0486158
0.0988573
0.367495
0.603892
0.63969
0.772079
0.637051
0.62562
0.56196
0.590011
0.583674
0.536655
0.476805
0.430467
0.396388
0.379501
0.361777
0.381929
0.403289
0.463363
0.00938609
0.00863915
0.00720931
0.0110639
0.0332747
0.195861
0.518874
0.757159
0.85291
0.933434
0.698787
0.616988
0.733571
0.736613
0.87115
0.962158
0.97698
0.867447
0.716111
0.59897
0.482538
0.419055
0.40744
0.410473
0.461964
0.00939104
0.00855311
0.00702704
0.0177608
0.0974268
0.962016
1.4115
1.14723
0.846004
0.593381
0.726147
0.680174
0.780255
1.00275
1.36868
1.49528
1.44687
1.06878
0.876623
0.76595
0.696262
0.671645
0.64044
0.520194
0.606408
0.00940462
0.0084143
0.00790279
0.057792
0.601365
0.84964
1.032
0.826387
0.672867
0.598804
0.678679
0.813758
0.951804
1.53253
2.20132
2.77695
2.66067
1.83081
1.31732
1.14827
1.0655
1.13307
1.15215
1.17411
1.53051
0.00945105
0.00811769
0.00868196
0.0708221
0.421073
0.466001
0.599783
0.45725
0.423158
0.407609
0.706587
0.91094
1.11685
1.98622
2.83823
3.12272
3.6798
2.73096
2.06892
1.99835
1.79833
1.91479
2.13622
2.17121
3.3215
0.0094288
0.00829837
0.0090585
0.0807133
0.261345
0.308764
0.379228
0.302248
0.277332
0.258049
0.58249
0.770072
1.00734
1.75774
2.60408
2.99793
3.50978
3.39754
3.45008
3.16029
3.40155
3.59018
3.69045
3.6895
5.61081
0.00942504
0.00840712
0.00958396
0.0904069
0.193895
0.21305
0.235749
0.22439
0.195167
0.187399
0.645951
0.811758
0.981955
1.54242
2.08227
2.17524
2.18278
2.63955
3.08715
3.57854
3.6183
4.59077
4.37941
5.16258
8.87082
0.00944607
0.0082298
0.010621
0.0717192
0.121993
0.149603
0.153749
0.142563
0.157357
0.1524
0.687041
0.89698
1.15373
1.64492
1.40938
1.30581
1.464
1.57407
1.53124
2.14786
2.21037
2.20916
2.72136
5.16189
10.499
0.00946316
0.00810347
0.0110702
0.0506843
0.0916055
0.106078
0.117972
0.111529
0.113639
0.112045
0.760406
1.08156
1.42764
1.54461
1.20482
0.947467
0.787259
0.726331
0.634872
0.649412
0.628921
0.690453
1.312
4.303
10.829
0.00945572
0.00794279
0.0133298
0.0385435
0.0818092
0.102121
0.105853
0.100123
0.0943673
0.12758
1.23612
1.3424
1.60553
1.16383
0.870958
0.806769
0.565698
0.449263
0.427053
0.403884
0.44899
0.47056
0.786571
3.28425
10.461
0.00943653
0.00780183
0.0107054
0.030676
0.0875337
0.0949527
0.0912491
0.0887939
0.0824365
0.113356
1.20636
1.04112
1.21759
0.919073
0.778792
0.57902
0.424915
0.389038
0.405569
0.395214
0.388657
0.424866
0.49474
2.65381
7.53267
0.00941253
0.00819282
0.00983632
0.0327524
0.143702
0.144636
0.101136
0.0789012
0.0778051
0.108903
0.875597
0.64235
0.762845
0.642158
0.551208
0.506477
0.414247
0.442591
0.432896
0.397782
0.433144
0.438289
0.559729
1.90796
4.54809
0.0094544
0.00793993
0.011158
0.0842529
0.263109
0.221051
0.128512
0.092774
0.0803572
0.0843518
0.517206
0.671965
0.529996
0.531364
0.58398
0.626481
0.609275
0.629185
0.542127
0.483148
0.546303
0.484979
0.501564
1.07643
2.56171
0.00934623
0.00839187
0.0214756
0.241359
0.366621
0.295245
0.138664
0.0961701
0.0823347
0.0909563
0.359217
0.692393
0.41714
0.386568
0.457652
0.561057
0.62394
0.811746
0.758917
0.617798
0.574316
0.498702
0.491256
0.726459
1.60067
0.00861505
0.0156886
0.0966615
0.567542
0.601689
0.365382
0.158719
0.0980063
0.0939022
0.115795
0.31003
0.51812
0.380374
0.337112
0.437828
0.397453
0.703046
0.597549
0.733782
0.699116
0.639169
0.594281
0.50213
0.51482
1.1098
0.00864421
0.0395701
0.532059
0.872569
0.711084
0.464197
0.170604
0.106983
0.101637
0.122477
0.246185
0.508331
0.411254
0.333236
0.399389
0.373546
0.401185
0.411245
0.613452
0.483285
0.53301
0.461932
0.418844
0.364861
0.481537
0.00862923
0.13102
0.687481
1.0041
0.743505
0.630495
0.258527
0.225538
0.160866
0.146164
0.223197
0.431739
0.377484
0.33997
0.329282
0.289098
0.274967
0.223985
0.281416
0.249449
0.223524
0.220928
0.240018
0.231784
0.308725
0.00834288
0.132878
0.49024
0.335537
0.373
0.563737
0.734516
0.552464
0.379604
0.598234
0.459527
0.562374
0.640885
0.623357
0.822854
0.929105
1.05676
0.948036
0.797701
0.626555
0.47945
0.419168
0.354473
0.3489
0.374033
0.101762
0.0620099
0.0673446
0.0639849
0.0848012
0.128796
0.241649
0.248275
0.301691
0.378319
0.425362
0.589582
0.519073
0.457654
0.426588
0.421356
0.397073
0.350208
0.304236
0.266778
0.239931
0.212758
0.196703
0.183374
0.180828
0.1174
0.0782659
0.0612778
0.0493228
0.0320399
0.0274496
0.0253593
0.0260024
0.0361711
0.043027
0.0468559
0.0512547
0.0711027
0.0762048
0.08433
0.100592
0.123607
0.169046
0.38792
0.328236
0.319966
0.213502
0.156839
0.135269
0.135006
0.00940553
0.00875191
0.0099678
0.0223734
0.0678667
0.0715151
0.0754651
0.0755069
0.165257
0.188124
0.253746
0.285764
0.311808
0.331594
0.320712
0.285709
0.265107
0.338552
0.683202
0.787571
0.706825
0.505861
0.410999
0.400823
0.477891
0.00937993
0.00861407
0.00781762
0.00817858
0.0112823
0.0147876
0.0179919
0.038291
0.109505
0.294873
0.401174
0.496527
0.588281
0.633502
0.791804
0.803879
0.828402
0.798141
1.09948
1.4571
1.31095
0.925279
0.738223
0.68715
0.739627
0.00939382
0.00847437
0.00816397
0.00784013
0.00865184