/*--------------------------------*- C++ -*----------------------------------*\
  =========                 |
  \\      /  F ield         | OpenFOAM: The Open Source CFD Toolbox
   \\    /   O peration     | Website:  https://openfoam.org
    \\  /    A nd           | Version:  11
     \\/     M anipulation  |
\*---------------------------------------------------------------------------*/
FoamFile
{
    format      ascii;
    class       volScalarField;
    location    "45";
    object      omega;
}
// * * * * * * * * * * * * * * * * * * * * * * * * * * * * * * * * * * * * * //

dimensions      [0 0 -1 0 0 0 0];

internalField   nonuniform List<scalar> 
17196
(
0.0214416
0.0196963
0.016791
0.0160369
0.0149844
0.0112598
0.0120378
0.0133097
0.0143268
0.0156947
0.017378
0.0195956
0.0230547
0.026481
0.0288169
0.0308306
0.032161
0.0334836
0.0345703
0.0355564
0.0363974
0.0372917
0.038
0.0381292
0.0395052
0.0109285
0.0105926
0.00970863
0.00940759
0.00858248
0.00631795
0.0063097
0.00669333
0.00720107
0.00783723
0.00878478
0.0101468
0.012084
0.0140417
0.015273
0.0164522
0.0172867
0.0182602
0.0190163
0.0196917
0.0202952
0.0207465
0.0212283
0.0214649
0.0222284
0.0109846
0.0105089
0.0101563
0.00982113
0.00891045
0.00707862
0.00682123
0.00704831
0.00735654
0.00807572
0.00893255
0.0101352
0.0121906
0.0142528
0.0154338
0.0165112
0.0175352
0.0185836
0.0192517
0.0200903
0.0207141
0.0212561
0.0218252
0.0221069
0.0228707
0.0109886
0.0104759
0.0101894
0.0097895
0.00902534
0.0072209
0.0071275
0.00747931
0.00781091
0.00819718
0.00885314
0.0101105
0.012545
0.0138416
0.0149283
0.0165292
0.0173828
0.0184683
0.0192329
0.0201294
0.0207767
0.0214253
0.0220492
0.0223656
0.0229946
0.0109999
0.0104518
0.0100813
0.00966764
0.00901742
0.00732049
0.00753374
0.00796565
0.00815284
0.008144
0.00858566
0.0101517
0.0116113
0.0129235
0.0141843
0.0158007
0.0169909
0.018244
0.0190702
0.0200971
0.0207647
0.0213968
0.0220248
0.0223477
0.0229544
0.011002
0.0104274
0.010248
0.00963707
0.00862918
0.00725035
0.00802629
0.00861531
0.00840467
0.00793355
0.00800145
0.00843173
0.00912802
0.01092
0.0126773
0.0141978
0.0155587
0.0172369
0.0181904
0.0194471
0.020151
0.0210326
0.0216368
0.0219884
0.0226046
0.0110001
0.0104547
0.0100656
0.00928551
0.00800291
0.00739255
0.0087011
0.00889464
0.00803402
0.00790092
0.00776785
0.00766035
0.00810091
0.00983591
0.0111471
0.0127502
0.0141609
0.0156751
0.0167092
0.0180785
0.0188505
0.0197537
0.020385
0.0209028
0.0216271
0.0108989
0.0106035
0.0103558
0.00983638
0.00777782
0.00781654
0.00935806
0.00856175
0.0084316
0.00780382
0.00752542
0.00767395
0.00790756
0.00850801
0.00949266
0.0113895
0.0128512
0.0144882
0.0155305
0.0166035
0.0173458
0.018075
0.018943
0.0194717
0.0205745
0.0109886
0.0106191
0.0101361
0.00931954
0.0080781
0.00836921
0.0101004
0.00905823
0.00838158
0.00790769
0.00779507
0.0075881
0.00778962
0.00817545
0.0088781
0.0106863
0.0122351
0.0136572
0.0145324
0.0154591
0.0164456
0.0172413
0.01838
0.0189756
0.0201125
0.0109548
0.01063
0.0106276
0.00959865
0.00833956
0.00898603
0.0106246
0.00952741
0.00827757
0.00801135
0.00778094
0.00803675
0.00800913
0.00841981
0.0088236
0.00962817
0.0108648
0.0119961
0.0133398
0.0143445
0.0157289
0.0167267
0.018071
0.0186718
0.019821
0.0109553
0.0106418
0.0100849
0.00866853
0.00820331
0.00966786
0.0106337
0.00939297
0.00793257
0.0081738
0.00789286
0.00807533
0.00857918
0.00853787
0.0091182
0.00945363
0.0097595
0.0107225
0.0120211
0.0129976
0.0150293
0.0161736
0.0177208
0.0183558
0.0196859
0.0109035
0.0107074
0.0105233
0.00899833
0.00850704
0.0106941
0.0103113
0.0104873
0.0084708
0.00886831
0.00843583
0.00877623
0.00896366
0.00886381
0.00924162
0.00924029
0.00953042
0.010549
0.0116501
0.0127197
0.0147758
0.0159331
0.0175323
0.0181339
0.0196899
0.0110775
0.0105324
0.0100583
0.00889575
0.00924344
0.0113737
0.0112361
0.0105794
0.00887098
0.00970847
0.00899349
0.00917185
0.00943405
0.00899084
0.0094002
0.00912726
0.00961888
0.0108633
0.0116248
0.0130431
0.0146617
0.0157042
0.017322
0.0178593
0.0195544
0.0109153
0.0104988
0.0102187
0.00942333
0.0102616
0.0118462
0.012127
0.0106873
0.00939778
0.00987682
0.00935267
0.00912634
0.00943614
0.00947286
0.00934028
0.0096416
0.0105296
0.011121
0.0119721
0.0129156
0.0143534
0.0150197
0.0166669
0.0172641
0.0191417
0.0109645
0.0103628
0.00961203
0.0101929
0.0115468
0.0120444
0.012176
0.0108919
0.0103631
0.00990738
0.0103322
0.0106307
0.0106893
0.0112878
0.0112485
0.0110809
0.0112105
0.011634
0.0123835
0.0128968
0.0139729
0.014616
0.0162383
0.0168053
0.0187205
0.0108447
0.010136
0.0097174
0.0115294
0.0132278
0.0124119
0.0121962
0.0111238
0.0113423
0.0115473
0.0117352
0.012867
0.0128107
0.0127812
0.0121934
0.012497
0.0122084
0.0122313
0.0129524
0.0132441
0.014291
0.0147841
0.0159151
0.0164718
0.0182243
0.0108125
0.0099992
0.0092718
0.0127953
0.0150383
0.0144242
0.0121337
0.0131285
0.0127152
0.0127856
0.0137149
0.0145274
0.0146227
0.014509
0.0146234
0.0138462
0.0138799
0.0136032
0.013805
0.0140512
0.0148777
0.0152962
0.0163123
0.0166637
0.0180435
0.0108264
0.00981045
0.009371
0.0144886
0.0171864
0.0156768
0.0141564
0.0137619
0.0138058
0.0141714
0.0152864
0.017251
0.0162149
0.0159605
0.0159818
0.0165351
0.0151147
0.0160155
0.0155224
0.0153777
0.015622
0.0158618
0.0166156
0.0169474
0.0183031
0.0110135
0.00998265
0.00912741
0.0158762
0.01939
0.0179255
0.0151833
0.0147386
0.014709
0.0155859
0.0182337
0.019111
0.0177837
0.016576
0.0180335
0.0176245
0.0166916
0.0174189
0.0174633
0.0171828
0.0166003
0.0165407
0.0168972
0.0172848
0.018459
0.0109281
0.0100396
0.00921491
0.0175586
0.0218971
0.0200213
0.0168515
0.0155877
0.0159861
0.0179041
0.0215102
0.0209892
0.019596
0.0176006
0.0187327
0.0184375
0.0176497
0.0178063
0.017409
0.0165209
0.0170721
0.0168337
0.0168029
0.0168387
0.0183769
0.0112034
0.00923254
0.00918314
0.0190608
0.0244795
0.0225903
0.0188817
0.0170886
0.0178867
0.0206182
0.0232847
0.0236845
0.02256
0.0217874
0.0202441
0.0201237
0.0190329
0.0182365
0.0175495
0.0181276
0.0170966
0.0176407
0.0172042
0.0174764
0.0183447
0.0111777
0.00922534
0.0102505
0.0209698
0.0259212
0.0243537
0.0204443
0.0190458
0.0202024
0.0218715
0.0254771
0.0267006
0.0258853
0.0241973
0.0237141
0.0221
0.0223872
0.0213169
0.0203818
0.0202218
0.0200528
0.0200442
0.0200732
0.0194526
0.0198676
0.0110725
0.00790227
0.00902842
0.0225391
0.0265013
0.0256334
0.0220826
0.0221012
0.0237043
0.0249315
0.028374
0.0301625
0.0302333
0.0300539
0.029804
0.0285098
0.0272551
0.026069
0.0253737
0.0235955
0.0217995
0.022352
0.0225935
0.022619
0.0224719
0.0108564
0.00758042
0.00999166
0.0224482
0.0262625
0.0281556
0.0266396
0.0257869
0.0261249
0.0273387
0.0311355
0.0336382
0.0332904
0.0335763
0.0337814
0.0334802
0.0330577
0.0331831
0.031811
0.0293764
0.0272083
0.0267215
0.0266338
0.0266414
0.0265829
0.0223347
0.01779
0.0167813
0.0396996
0.0473253
0.0473056
0.0480496
0.0500912
0.0519424
0.053145
0.0562965
0.0579842
0.0602069
0.0594247
0.0576894
0.0563865
0.0549782
0.0523407
0.0496915
0.0490432
0.047892
0.0458943
0.0452088
0.0448285
0.0471239
0.0216093
0.0203303
0.0178754
0.0155035
0.0169172
0.013541
0.0125892
0.0143771
0.0160912
0.0177382
0.0200623
0.0250248
0.0288439
0.0320829
0.0335537
0.0352755
0.0364968
0.0370006
0.0380187
0.0392175
0.0404011
0.0413668
0.043121
0.0442927
0.047528
0.33041
0.138538
0.0764462
0.0463357
0.0384805
0.0234747
0.012972
0.0138365
0.0197863
0.0256368
0.0308826
0.0346566
0.0365543
0.0374751
0.0388632
0.0396726
0.0400514
0.0417565
0.0436386
0.045888
0.0477299
0.0498401
0.051303
0.051421
0.0486729
0.334903
0.134073
0.079208
0.0523355
0.0394088
0.0278021
0.0152144
0.0162089
0.0191806
0.0239724
0.0281188
0.0293994
0.0298259
0.0307617
0.031676
0.0320135
0.031918
0.0318615
0.0324911
0.0324942
0.0326217
0.0327486
0.0324686
0.0322564
0.0315496
0.334878
0.135428
0.0762199
0.0528468
0.0377853
0.0230166
0.0160826
0.0192134
0.0256217
0.0302268
0.0306646
0.0301115
0.0319877
0.0348571
0.0389326
0.038457
0.0366708
0.0353784
0.0339654
0.0330512
0.0324547
0.0314181
0.0308355
0.0305252
0.0305172
0.33411
0.135778
0.0760957
0.0515777
0.03493
0.0213238
0.0202656
0.0263844
0.0321576
0.0333018
0.0344076
0.0371774
0.0437147
0.0488313
0.0515876
0.0511141
0.0499399
0.0486541
0.046232
0.042931
0.0390986
0.035431
0.0330824
0.0330613
0.0334879
0.33336
0.135595
0.0768637
0.0486096
0.0340869
0.0182594
0.0219382
0.0318159
0.0354327
0.0374224
0.0416829
0.0488923
0.0561946
0.0591377
0.0597224
0.0608198
0.0602157
0.0586147
0.0552698
0.0499444
0.0452636
0.0400144
0.0396949
0.0381291
0.03959
0.332985
0.136635
0.0769908
0.0470135
0.031981
0.0187704
0.0261869
0.0347707
0.0391183
0.0452811
0.0541224
0.0590267
0.0622623
0.0637239
0.065229
0.0666219
0.0661952
0.0640818
0.0602061
0.0555961
0.0502312
0.0478437
0.0467108
0.0458275
0.0452209
0.33292
0.138527
0.0755738
0.047396
0.030765
0.0240518
0.0310447
0.03781
0.0476552
0.0585654
0.0624577
0.0655173
0.0667936
0.067578
0.069872
0.0727749
0.0724296
0.0707419
0.0660755
0.0596223
0.0548412
0.0521274
0.0494827
0.0482681
0.0474021
0.333189
0.140219
0.0735943
0.0473174
0.0281475
0.0287098
0.0339724
0.0465561
0.0621644
0.0657797
0.0681389
0.0696988
0.0692979
0.0713582
0.0771539
0.0810489
0.0815547
0.079458
0.0723753
0.0654668
0.060464
0.0561325
0.0534358
0.0512981
0.0499844
0.33359
0.141312
0.0737468
0.0476815
0.0283888
0.0319868
0.0403319
0.0617482
0.0710426
0.0740227
0.0745243
0.0727025
0.0719593
0.077377
0.082649
0.0821421
0.082991
0.079892
0.0729114
0.0675328
0.0631573
0.0594422
0.0565787
0.0543423
0.0532156
0.333618
0.140332
0.0736689
0.042815
0.0323067
0.0356354
0.052084
0.0695579
0.0750111
0.0778438
0.0765486
0.074256
0.0758747
0.0813365
0.0810189
0.082101
0.0785733
0.0738442
0.0711267
0.0697917
0.0662437
0.0626177
0.0598852
0.057838
0.0567342
0.333434
0.141383
0.0748672
0.0426739
0.0339432
0.0402192
0.0600534
0.0717732
0.0782242
0.0808781
0.0791253
0.0773805
0.0795954
0.0783223
0.0798077
0.0767814
0.0724962
0.0711723
0.0744828
0.0766351
0.0725649
0.0676923
0.0637705
0.060927
0.059417
0.333094
0.140201
0.0768736
0.0430317
0.0352787
0.0474308
0.0689933
0.0737553
0.0810282
0.0835106
0.0812141
0.077976
0.0754645
0.0774514
0.0760897
0.072994
0.0728056
0.0774814
0.0816268
0.0793663
0.0750558
0.0700425
0.0656437
0.0629896
0.0613287
0.331322
0.139995
0.0800276
0.0439558
0.0399852
0.054804
0.0699612
0.0766146
0.0804733
0.0845838
0.0817591
0.0788398
0.0737435
0.0736049
0.0715775
0.0725579
0.0783946
0.0843255
0.0841621
0.0807299
0.0760746
0.0724743
0.0686792
0.0657322
0.0631824
0.330694
0.139115
0.0834028
0.0442734
0.0446168
0.0629179
0.0698331
0.0763446
0.0791088
0.0837122
0.080874
0.0797702
0.0699542
0.0726749
0.0705628
0.0784158
0.0861974
0.0880854
0.0861927
0.0824802
0.0787155
0.0750545
0.071084
0.067573
0.0637073
0.329667
0.142016
0.0846361
0.0457069
0.0514392
0.0633024
0.0691921
0.0764704
0.0779963
0.0819199
0.0776322
0.072574
0.0751833
0.0690012
0.0743711
0.083518
0.0902526
0.089931
0.0877634
0.0842928
0.0808025
0.0759519
0.0721435
0.0677867
0.0640172
0.328294
0.141739
0.0823509
0.0466886
0.05401
0.0656549
0.073582
0.0783357
0.0756721
0.0758893
0.0743922
0.0754734
0.070891
0.0739734
0.0805535
0.0863851
0.0902887
0.0925879
0.0902143
0.0869101
0.0814306
0.0772356
0.0722627
0.0684363
0.0641494
0.324882
0.154172
0.0801242
0.0476571
0.0585017
0.0676314
0.0739751
0.0753873
0.0752188
0.076696
0.0704817
0.0706176
0.0737494
0.0743778
0.0804178
0.0847942
0.0883015
0.0893755
0.0861904
0.0839403
0.0797552
0.0757496
0.0713289
0.0687088
0.0639864
0.322126
0.171039
0.0815206
0.047917
0.0619602
0.0709149
0.0744047
0.0757694
0.075112
0.0704981
0.0696353
0.0707473
0.0736058
0.0749058
0.0799766
0.0813458
0.085818
0.0853974
0.0830157
0.0799777
0.0775247
0.0738339
0.0710802
0.0704719
0.0655371
0.327922
0.165335
0.0745283
0.0456646
0.061802
0.0773182
0.076217
0.0720214
0.0708142
0.069506
0.0707264
0.0698166
0.0738895
0.0720784
0.0722518
0.0787313
0.0766204
0.0799646
0.0798296
0.0782252
0.0756053
0.0735475
0.0717943
0.0725684
0.067887
0.337167
0.13565
0.0744368
0.0444847
0.0768274
0.0772197
0.0723155
0.0707228
0.0710697
0.0686537
0.0674355
0.0684383
0.0736955
0.0727575
0.0702927
0.0771085
0.073937
0.077106
0.0785122
0.0750508
0.0712555
0.0693022
0.0679888
0.0688117
0.0688124
0.339852
0.105023
0.0831311
0.0554503
0.0819681
0.0738059
0.0702373
0.0737396
0.0726427
0.0713812
0.0695806
0.0693496
0.0744783
0.0724123
0.0712538
0.075151
0.0754994
0.0765461
0.0763635
0.0724006
0.0690853
0.0663457
0.063394
0.0623122
0.0629639
0.335482
0.0846667
0.0719239
0.064861
0.0880711
0.0729295
0.0692171
0.0687836
0.0707523
0.0725584
0.0713438
0.066922
0.0683704
0.0708917
0.0663338
0.0666123
0.0663884
0.068967
0.0697558
0.0680365
0.0652799
0.062628
0.0602934
0.0594873
0.0578473
0.35446
0.110073
0.0561612
0.0530998
0.0740259
0.0729194
0.0696388
0.0714583
0.0763972
0.0912344
0.097332
0.0917529
0.0910739
0.0904603
0.0892762
0.0814528
0.0792903
0.0846353
0.0781017
0.0834236
0.0842072
0.0867569
0.0760391
0.0732614
0.0707413
0.0194938
0.0210877
0.0312881
0.0467779
0.0506819
0.0553948
0.0591423
0.0651512
0.0666271
0.0709542
0.0750501
0.0763532
0.0764058
0.076126
0.0755859
0.0726547
0.0699152
0.0686564
0.0665745
0.0647905
0.0645202
0.0647571
0.0624924
0.0636158
0.0645847
0.021655
0.0201905
0.0182723
0.0151111
0.0157351
0.0152384
0.0143748
0.0149065
0.0163025
0.0192423
0.0217149
0.0260966
0.0304936
0.035137
0.0376716
0.0401824
0.0420138
0.0431488
0.0430794
0.0433747
0.0431602
0.0442359
0.0455238
0.0460191
0.0485054
0.334933
0.140518
0.0791629
0.0482066
0.0440922
0.0382702
0.0284862
0.0240076
0.0261328
0.0306184
0.0351181
0.0419914
0.0417118
0.0424181
0.0411901
0.0413825
0.0419939
0.0423291
0.0437355
0.0456834
0.0481327
0.0499983
0.0519055
0.0522544
0.0496508
0.338684
0.137991
0.0828192
0.0584594
0.0454593
0.0379439
0.0290865
0.0264
0.0244657
0.0256328
0.0285342
0.0304939
0.0315148
0.032116
0.0325965
0.0333952
0.0341286
0.0347264
0.0359436
0.0360108
0.0359752
0.0358872
0.0356903
0.0349917
0.0343948
0.339114
0.139592
0.0813711
0.0578805
0.0445112
0.0353524
0.0293127
0.0273937
0.0275213
0.0295681
0.0312846
0.0312913
0.0321201
0.0330113
0.0354414
0.0381735
0.040467
0.0446828
0.0443012
0.0429308
0.0412034
0.0393979
0.036955
0.0349003
0.0345565
0.339245
0.140309
0.0812871
0.0562859
0.0426034
0.0352716
0.0313207
0.0287145
0.0308088
0.0329797
0.0342476
0.0356609
0.0372493
0.0396799
0.0458535
0.0528465
0.0571171
0.0587252
0.0591558
0.0574211
0.0527079
0.046678
0.0409608
0.037151
0.0365651
0.339384
0.140441
0.080994
0.0549237
0.0424393
0.0363935
0.0293927
0.0311303
0.0342659
0.0370024
0.0395842
0.0419245
0.0450698
0.052222
0.0599467
0.0633678
0.0664154
0.0661398
0.0642872
0.0615408
0.0570375
0.0520712
0.0459555
0.0409152
0.0393089
0.339431
0.139893
0.0805165
0.0540381
0.0428177
0.0371116
0.0325885
0.0343186
0.0376235
0.0408061
0.0471758
0.0541811
0.0630296
0.0682579
0.0701488
0.0722202
0.0733927
0.0713988
0.0668672
0.0622549
0.0579834
0.0537218
0.0482038
0.0442135
0.0421104
0.339197
0.139232
0.0795474
0.053519
0.0436229
0.0385539
0.0383243
0.041918
0.043249
0.0505252
0.0615528
0.069465
0.0720401
0.0720176
0.0734811
0.0801089
0.0807072
0.0768791
0.0707417
0.063729
0.0589943
0.0544335
0.0484592
0.0456357
0.0435818
0.339064
0.138634
0.0778548
0.0527893
0.043625
0.041737
0.0443028
0.0442378
0.0483073
0.0576042
0.0651939
0.0704197
0.0706026
0.0753856
0.0839022
0.0917384
0.0928883
0.0879336
0.0798144
0.0702938
0.0629103
0.0570829
0.0528807
0.0490629
0.0475135
0.338981
0.139019
0.0778021
0.0533032
0.0488039
0.049977
0.050266
0.0493504
0.0509698
0.0564623
0.0628354
0.0674239
0.0719794
0.0856031
0.0922897
0.0924852
0.0951872
0.0928025
0.0853498
0.0757901
0.0681349
0.0618909
0.0579636
0.0542946
0.0523332
0.339097
0.138976
0.076198
0.0547986
0.0524991
0.0516303
0.0502992
0.0526572
0.0554776
0.0581103
0.0615141
0.0688723
0.078473
0.0890172
0.0887683
0.0907555
0.0854095
0.0836652
0.0840276
0.0778794
0.0707478
0.0665392
0.062662
0.059466
0.0570536
0.338953
0.139932
0.0767563
0.0580095
0.0573534
0.0538167
0.0556635
0.0535311
0.0579697
0.0593082
0.061286
0.0699595
0.0829356
0.0835883
0.0818302
0.0771661
0.0723425
0.0823632
0.0831157
0.0788704
0.0727707
0.0685925
0.0642358
0.0614122
0.0598436
0.339227
0.139313
0.0763218
0.0612063
0.0584097
0.0551736
0.0542675
0.0608753
0.0611273
0.0620946
0.0638625
0.0723531
0.0779161
0.0701014
0.0715927
0.0691658
0.0795938
0.0844294
0.0805912
0.0744148
0.0701625
0.0661484
0.0628746
0.0616414
0.0614104
0.33937
0.138532
0.0794205
0.0655276
0.0627595
0.0570529
0.0609266
0.0684021
0.0737056
0.0723648
0.0711889
0.0691006
0.0660343
0.0639798
0.064082
0.0787269
0.0876862
0.0851329
0.0802893
0.0744456
0.0701115
0.0659038
0.0632906
0.0621087
0.0619232
0.339364
0.135633
0.0827134
0.0696364
0.060182
0.0601428
0.0684997
0.0692446
0.0720639
0.0766719
0.0705043
0.0673445
0.0692321
0.0691754
0.0808287
0.0942665
0.088619
0.0816472
0.0764757
0.0727399
0.0692101
0.0653341
0.0624295
0.0602837
0.0598487
0.338116
0.131585
0.0918481
0.070833
0.0596574
0.0617683
0.0680192
0.0670607
0.0693209
0.076315
0.0727271
0.0684956
0.0710146
0.0769492
0.0892463
0.0902275
0.0846709
0.0779324
0.0740786
0.0713109
0.0681095
0.0644725
0.0614487
0.0579656
0.0572889
0.336054
0.130822
0.100422
0.0692438
0.0655503
0.0672906
0.0665156
0.0657513
0.0651328
0.07071
0.0718176
0.071696
0.0746772
0.0822894
0.0848075
0.0838456
0.0818308
0.0777066
0.0753978
0.0715343
0.0684336
0.0637618
0.0603461
0.0576597
0.0550064
0.33724
0.139623
0.100146
0.0676223
0.0640843
0.0691455
0.0694349
0.0683419
0.0685751
0.0675414
0.0670259
0.0704813
0.0735232
0.0777184
0.0831699
0.0809335
0.078625
0.0775918
0.0749562
0.0707927
0.0654514
0.062027
0.0585749
0.0570175
0.0537959
0.336445
0.163665
0.0943724
0.0677854
0.0734762
0.0738077
0.0715395
0.0688333
0.0639002
0.06606
0.0685482
0.0709695
0.0727438
0.0745301
0.0769797
0.0748752
0.0738314
0.0735545
0.0714447
0.0682751
0.0628961
0.0598328
0.0573998
0.0573548
0.0539117
0.338677
0.16232
0.0827545
0.0673221
0.077975
0.075006
0.0680473
0.0621569
0.0610351
0.064479
0.0637492
0.0686268
0.0720892
0.0711314
0.0718968
0.0706705
0.0668998
0.066181
0.0658208
0.0649059
0.0622323
0.0584145
0.0568085
0.0572052
0.0531341
0.34117
0.14067
0.071886
0.0601058
0.0829441
0.0725782
0.0675687
0.0598172
0.0623793
0.064203
0.0614085
0.0675529
0.0686769
0.0666172
0.0671136
0.0687766
0.0658711
0.0625643
0.0602031
0.0598497
0.0605839
0.0587564
0.0594067
0.0604463
0.0570254
0.335986
0.111782
0.0672914
0.0682665
0.0785229
0.0709262
0.0613939
0.0616934
0.0615706
0.0648554
0.0638553
0.0679601
0.0673574
0.0668123
0.0643888
0.0632903
0.065117
0.0627353
0.0595452
0.0568924
0.056343
0.0563626
0.0569203
0.0583979
0.0638552
0.328624
0.0805669
0.0613711
0.0664432
0.0695
0.0679728
0.0687476
0.0631825
0.0661778
0.0687489
0.0675893
0.0661908
0.0685114
0.066088
0.0671718
0.0692198
0.0671922
0.0641698
0.0605189
0.0569721
0.0545497
0.0534571
0.0516822
0.0512648
0.054965
0.342565
0.109947
0.0555827
0.0564162
0.0625777
0.06971
0.071119
0.0729778
0.0777359
0.0854282
0.0907985
0.0865978
0.0962743
0.0915244
0.0892656
0.0845112
0.0876584
0.0836135
0.0812273
0.0770353
0.072157
0.068417
0.0626504
0.059724
0.0594211
0.0192673
0.0249235
0.0298331
0.0426544
0.0412558
0.0566893
0.0630196
0.0709138
0.0753019
0.0753101
0.0725498
0.0705956
0.0682747
0.0696563
0.0760962
0.0738768
0.0697996
0.0672028
0.0658418
0.0649849
0.0635155
0.0632248
0.0619093
0.0624209
0.0622973
0.0215817
0.0203232
0.0187245
0.0150899
0.0143034
0.0148594
0.0159185
0.017452
0.0194792
0.0223801
0.0250926
0.027272
0.0306437
0.0348313
0.0384653
0.0413971
0.0443351
0.0469064
0.0488637
0.0510062
0.0506706
0.0512206
0.0510135
0.0508548
0.050521
0.336288
0.139154
0.0778992
0.0442466
0.0402032
0.0390698
0.0358925
0.0333439
0.033722
0.0364887
0.0405353
0.0469235
0.0510406
0.0530346
0.0517852
0.0518968
0.0507165
0.0480577
0.0462695
0.0468048
0.0478256
0.0496053
0.0518954
0.0526915
0.0507977
0.338628
0.138618
0.0834664
0.0576838
0.0443898
0.0370787
0.0322223
0.0305802
0.0308083
0.0323811
0.0329078
0.0357385
0.0379388
0.0374197
0.0379162
0.0368794
0.0363792
0.0368132
0.0356225
0.035449
0.0355188
0.0354608
0.0353047
0.035909
0.0362232
0.338903
0.140157
0.0828743
0.0580841
0.0450928
0.036828
0.033227
0.0327765
0.0321433
0.0327875
0.0340278
0.0365638
0.0376374
0.0376665
0.0375129
0.0390824
0.0395206
0.0401107
0.0401272
0.0402546
0.0381926
0.0388183
0.0386976
0.037342
0.037758
0.339101
0.141232
0.0832325
0.0568347
0.0438818
0.0366214
0.0354326
0.0341495
0.034798
0.0384786
0.0407465
0.0445223
0.0489154
0.055941
0.0585484
0.060465
0.0621301
0.0646855
0.0621815
0.0623103
0.0585843
0.0524042
0.0464577
0.0409449
0.0394181
0.339127
0.141886
0.0826147
0.055314
0.0429247
0.0387948
0.0368206
0.0357069
0.0368669
0.055569
0.0598391
0.0715664
0.0852267
0.0853621
0.085567
0.083173
0.0799946
0.0771624
0.072312
0.0675286
0.0620819
0.0571069
0.0514151
0.0459468
0.0439696
0.339072
0.141822
0.0815895
0.0532056
0.0423458
0.0403585
0.036473
0.0373671
0.0641757
0.0766035
0.0974883
0.104745
0.101609
0.0961592
0.0901182
0.0856086
0.0819294
0.0773183
0.0711746
0.0653483
0.0591282
0.0540318
0.0487554
0.0445626
0.0425057
0.338936
0.141107
0.0799264
0.051686
0.0421464
0.0411794
0.044098
0.05075
0.0822764
0.100382
0.108159
0.103459
0.0986265
0.0948093
0.094475
0.0940722
0.0949533
0.0900433
0.0804318
0.0719791
0.0639138
0.0571767
0.0505461
0.045465
0.0432675
0.338783
0.139654
0.0774915
0.0512979
0.052184
0.060278
0.07029
0.0785266
0.0887722
0.101607
0.100327
0.10063
0.101631
0.104232
0.107904
0.106447
0.107888
0.101779
0.0906321
0.0803651
0.0716511
0.0636967
0.0563981
0.0501852
0.048068
0.338779
0.139032
0.076103
0.0539912
0.0624412
0.0675001
0.0719109
0.0725578
0.0761474
0.08764
0.0958959
0.102526
0.106988
0.113323
0.111505
0.108678
0.114169
0.110352
0.100365
0.0881024
0.0782609
0.0690789
0.0614032
0.0573576
0.0538251
0.338796
0.138634
0.0750679
0.0539631
0.0648315
0.0696449
0.0657889
0.0671943
0.0651836
0.0715002
0.0923723
0.104643
0.108049
0.111798
0.103984
0.110505
0.11003
0.113951
0.108055
0.0971288
0.0870643
0.0777591
0.0702114
0.0657186
0.0613727
0.33884
0.139464
0.0743782
0.0558474
0.068311
0.0697953
0.0637051
0.063494
0.0612372
0.0621714
0.0834187
0.101487
0.105329
0.102534
0.0988543
0.0929367
0.09919
0.0987228
0.0956434
0.0926354
0.0864714
0.0816295
0.0774588
0.0736576
0.0709556
0.339347
0.139149
0.0729513
0.0606634
0.0741303
0.0695886
0.0643196
0.0641882
0.0609702
0.0613836
0.0765286
0.0898963
0.0863324
0.0873628
0.0860565
0.0934968
0.0977517
0.090711
0.0847185
0.0847253
0.0842205
0.0789408
0.0760735
0.0770749
0.0755758
0.33913
0.139902
0.0753491
0.0667674
0.0758378
0.0709679
0.066355
0.0663892
0.067956
0.0690169
0.0742781
0.0813123
0.0812238
0.0832641
0.0959111
0.103124
0.0918309
0.0830736
0.0808923
0.0795146
0.0773353
0.0751195
0.0761598
0.0767866
0.0771836
0.339102
0.140977
0.0755039
0.0713999
0.0759668
0.0745104
0.0696945
0.0703782
0.0717222
0.075492
0.078775
0.0858007
0.0899952
0.0982258
0.111263
0.0982242
0.0859627
0.0808482
0.0756327
0.0734627
0.0702547
0.0673024
0.0680556
0.0695334
0.0735351
0.339429
0.140158
0.0808391
0.0799546
0.0747259
0.0715813
0.0704846
0.0732906
0.0744543
0.0788812
0.0819889
0.0933077
0.106096
0.10761
0.100599
0.090362
0.0818858
0.0751745
0.0720681
0.0698754
0.0675451
0.0640488
0.0620633
0.0628745
0.0670059
0.339596
0.135636
0.0904401
0.0795785
0.0745925
0.0763277
0.0744438
0.0703325
0.0744695
0.0763327
0.085322
0.109561
0.104268
0.0969258
0.0922723
0.0851954
0.0805097
0.0757842
0.0729323
0.0698004
0.0674655
0.0630093
0.0597249
0.0589058
0.0611039
0.337486
0.13323
0.0997697
0.082717
0.074807
0.0787272
0.069051
0.0714108
0.0705889
0.0731151
0.0823028
0.10847
0.0968249
0.0879513
0.0860739
0.0813947
0.0785893
0.0767022
0.0727441
0.0684426
0.0628607
0.0598169
0.0576789
0.0558515
0.0562159
0.337123
0.138496
0.103738
0.0775336
0.0810343
0.0784467
0.0722589
0.0718356
0.0702674
0.0716377
0.0805317
0.0975506
0.0893238
0.079983
0.0769604
0.074433
0.074741
0.0729711
0.0704514
0.0656878
0.0593189
0.0572556
0.0562686
0.0551328
0.0542932
0.336301
0.159711
0.101797
0.0754764
0.0826199
0.0794182
0.0643531
0.0681101
0.0709761
0.0728229
0.0786594
0.0871712
0.0832293
0.0760524
0.0702867
0.0663358
0.0657331
0.0669058
0.0653827
0.0645847
0.0593475
0.0571437
0.0559786
0.0547328
0.0537706
0.337692
0.157927
0.0879372
0.0731314
0.0849949
0.0737201
0.0612496
0.0652653
0.0711207
0.0710938
0.0727176
0.0790709
0.0785031
0.0746824
0.0689381
0.0620139
0.0588678
0.0569236
0.0579099
0.058771
0.0560155
0.0538842
0.053808
0.0524087
0.0516458
0.338561
0.141233
0.0705871
0.0715881
0.0779152
0.0693143
0.0625157
0.0690301
0.0740948
0.0752563
0.0736556
0.0737262
0.0727753
0.0743189
0.0712562
0.06664
0.060892
0.0566766
0.0550855
0.0519476
0.0521647
0.0513096
0.0557748
0.0585158
0.0555786
0.337461
0.110532
0.062239
0.0648323
0.0699832
0.063925
0.0706608
0.0759024
0.0761639
0.0778369
0.0738607
0.0735906
0.0733337
0.0712195
0.0705201
0.0690292
0.0684683
0.0614559
0.0576494
0.0543734
0.0530251
0.0501241
0.0498721
0.0523452
0.0598127
0.347655
0.125804
0.066983
0.0553205
0.0654418
0.0641623
0.0688157
0.0832307
0.086183
0.0903845
0.0943824
0.0985789
0.0900666
0.0872005
0.0877773
0.0863856
0.0812136
0.0848783
0.07914
0.0737023
0.070465
0.0611809
0.0586108
0.0623106
0.0626876
0.0194105
0.025603
0.0303647
0.0329331
0.0397895
0.0550396
0.0614566
0.0694365
0.0800655
0.0740577
0.0753829
0.0785862
0.0762258
0.08083
0.0865488
0.0825975
0.0756582
0.0706586
0.0670413
0.0648947
0.0631826
0.0618498
0.0610053
0.0611234
0.0599627
0.0215881
0.0203524
0.0193526
0.0167195
0.014461
0.0143446
0.0153701
0.019277
0.0226952
0.0257463
0.0277582
0.0319989
0.0335619
0.0355225
0.0384162
0.0412766
0.0437231
0.0463224
0.048254
0.0514563
0.0522055
0.0530607
0.0551485
0.0554481
0.0545973
0.338126
0.139359
0.0810969
0.0464676
0.0368039
0.0366579
0.0348865
0.0347963
0.0355741
0.0368953
0.040905
0.0469625
0.0515367
0.053677
0.0548716
0.055084
0.0565119
0.0580502
0.0599786
0.060453
0.059014
0.0562
0.0549895
0.0561847
0.0536548
0.338953
0.139911
0.0839435
0.0577174
0.0447924
0.0366673
0.031819
0.0313869
0.0331049
0.0371087
0.0396692
0.0402812
0.0402934
0.0419217
0.0429871
0.0438848
0.0448644
0.0450129
0.0464331
0.0469281
0.0450895
0.0445038
0.0436367
0.0426001
0.0402926
0.338964
0.140738
0.0833522
0.0590702
0.0449182
0.0369382
0.0330341
0.0342561
0.0377565
0.0408096
0.0451357
0.0466351
0.0517884
0.0560154
0.0557831
0.0484773
0.0482738
0.0496415
0.0512887
0.0497522
0.0471584
0.0458625
0.0446162
0.0433887
0.0424753
0.339121
0.141043
0.0848297
0.056524
0.0439562
0.037391
0.0352294
0.0383352
0.0438891
0.0573275
0.0681079
0.0892375
0.0988902
0.0967422
0.0912636
0.0880866
0.080425
0.0756007
0.0701546
0.0649676
0.0595297
0.0542503
0.0489713
0.0448957
0.0415966
0.339079
0.142057
0.0836139
0.0540482
0.0420219
0.0394405
0.0389316
0.0470674
0.0704551
0.0971131
0.122733
0.126767
0.121683
0.108731
0.0975032
0.0887691
0.0813597
0.0764273
0.0719742
0.0678583
0.0629136
0.0587126
0.0534927
0.0493389
0.044478
0.339029
0.142471
0.0820979
0.0536041
0.0426247
0.0443611
0.046193
0.0784465
0.110522
0.134457
0.1272
0.120361
0.107184
0.0977901
0.0911029
0.0859505
0.082039
0.0777697
0.0730128
0.0688526
0.0638683
0.0595496
0.0542238
0.0503415
0.0456343
0.338831
0.142429
0.0799824
0.0515207
0.0501033
0.0543811
0.0709831
0.111557
0.128651
0.123037
0.119501
0.11184
0.104476
0.097449
0.0938744
0.0889539
0.0839359
0.085946
0.0827747
0.0786384
0.0725801
0.0657488
0.0576603
0.0527451
0.0478955
0.338762
0.142182
0.0799417
0.0535555
0.0571421
0.0810473
0.0996653
0.105416
0.116487
0.118071
0.118586
0.114735
0.111371
0.107899
0.102151
0.0984134
0.0978261
0.099079
0.0940386
0.0901646
0.0858171
0.0788702
0.068989
0.0634351
0.0547789
0.338576
0.143267
0.0740561
0.0582118
0.0693281
0.0778862
0.0936172
0.0985608
0.106858
0.114681
0.120314
0.117544
0.116018
0.11001
0.104052
0.103482
0.108446
0.110832
0.10038
0.0930725
0.0899411
0.0838867
0.0774832
0.075194
0.0699388
0.338029
0.144654
0.0728281
0.0632091
0.0676836
0.080874
0.087847
0.0847913
0.0879552
0.09602
0.122569
0.119221
0.113756
0.106478
0.116664
0.123657
0.115693
0.12479
0.112654
0.0986837
0.0945626
0.0878159
0.0840939
0.0820061
0.0799934
0.33844
0.142256
0.0730355
0.0654528
0.0674683
0.0743334
0.0804686
0.0765377
0.0717499
0.0711314
0.115017
0.114914
0.110972
0.114297
0.112202
0.114411
0.11774
0.119326
0.123808
0.113513
0.103154
0.101069
0.0984887
0.0947619
0.0892707
0.338911
0.139179
0.0765721
0.0620601
0.0716374
0.0725639
0.0716648
0.0650391
0.0657491
0.07485
0.100201
0.103214
0.104276
0.104378
0.107533
0.107445
0.104821
0.106242
0.10996
0.112517
0.107248
0.099517
0.0972527
0.0944535
0.0897352
0.33883
0.14236
0.0763455
0.0659627
0.0729001
0.0758866
0.0772045
0.0721841
0.0644495
0.0689032
0.0927915
0.0989256
0.10242
0.109106
0.111148
0.100506
0.0942136
0.0955756
0.0996248
0.101009
0.0989017
0.0947991
0.0937173
0.0919841
0.0878082
0.339442
0.142938
0.0775521
0.0727953
0.0831645
0.0830092
0.0809535
0.0817342
0.0725522
0.0796822
0.100241
0.10918
0.111253
0.117076
0.107426
0.0960286
0.0897652
0.0880496
0.0845906
0.0841722
0.0812498
0.0775487
0.0788047
0.0806287
0.0800545
0.340121
0.143221
0.0755107
0.0783411
0.0862589
0.0861832
0.0831231
0.0838443
0.0790243
0.0878741
0.110782
0.120117
0.115136
0.106942
0.0992215
0.0911201
0.0856239
0.0774169
0.0769187
0.0748807
0.0721089
0.0710518
0.0704072
0.0735611
0.0713326
0.341125
0.142984
0.0844752
0.0878698
0.0864749
0.0855981
0.0801711
0.0810286
0.0825817
0.0923916
0.121142
0.117362
0.108558
0.0973357
0.0951452
0.0859336
0.0816559
0.0782926
0.0760592
0.074164
0.0725201
0.0678643
0.0676966
0.0688412
0.065872
0.340491
0.143585
0.0937725
0.0893087
0.0836801
0.0814124
0.0767917
0.0809538
0.08007
0.0911161
0.112998
0.109003
0.0980965
0.0901767
0.089959
0.0862185
0.0841093
0.0812884
0.0756024
0.0713252
0.0677447
0.065453
0.0637498
0.0641007
0.0609147
0.339779
0.144296
0.105296
0.0835128
0.0808563
0.0786891
0.0729498
0.073096
0.07698
0.0914173
0.10085
0.0959292
0.0888237
0.0828114
0.0797203
0.083379
0.0863035
0.0826188
0.0779923
0.0727845
0.0652532
0.068307
0.0649315
0.0621882
0.0609672
0.338562
0.147708
0.106662
0.0867488
0.0877388
0.070258
0.0699625
0.0718782
0.0759688