/*--------------------------------*- C++ -*----------------------------------*\
  =========                 |
  \\      /  F ield         | OpenFOAM: The Open Source CFD Toolbox
   \\    /   O peration     | Website:  https://openfoam.org
    \\  /    A nd           | Version:  11
     \\/     M anipulation  |
\*---------------------------------------------------------------------------*/
FoamFile
{
    format      ascii;
    class       volScalarField;
    location    "45";
    object      p;
}
// * * * * * * * * * * * * * * * * * * * * * * * * * * * * * * * * * * * * * //

dimensions      [0 2 -2 0 0 0 0];

internalField   nonuniform List<scalar> 
17196
(
10.1796
10.1699
9.794
9.80606
10.2848
10.4359
10.3172
10.2566
10.2291
10.5966
11.2502
11.6222
12.6542
12.6881
11.592
10.26
8.9676
7.65197
6.42867
5.38312
4.54977
3.87366
3.16621
2.39399
0.788266
10.1432
10.1126
9.75855
9.82834
10.3618
10.5263
10.2637
10.0386
9.90698
9.72641
10.0775
10.6962
11.2972
11.119
10.2496
9.15832
8.05136
6.90206
5.80508
4.84269
4.08308
3.57055
2.96598
2.16232
0.817098
10.1297
10.0968
9.80734
9.87042
10.3375
10.5737
10.2836
9.82326
9.49352
9.14683
9.10968
9.44286
9.72038
9.40345
8.56663
7.56825
6.58549
5.59923
4.63932
3.79789
3.196
2.86695
2.42549
1.52035
0.620354
10.1287
10.1243
9.81576
9.80755
10.1934
10.5045
10.3011
9.64874
8.99656
8.47304
8.18309
8.12452
7.97131
7.4239
6.5383
5.61243
4.74653
3.87774
3.04408
2.3855
1.99185
1.83162
1.58299
0.749907
0.294079
10.1343
10.1762
9.83275
9.7334
10.0234
10.3387
10.2087
9.46113
8.51822
7.72084
7.16655
6.78983
6.32495
5.5905
4.64117
3.75365
2.93801
2.13069
1.4172
0.955563
0.767114
0.756838
0.613817
-0.0684577
-0.139327
10.1386
10.2256
9.89546
9.77481
10.0163
10.2169
10.0077
9.03708
7.8488
6.69498
5.95811
5.46765
4.86001
4.02815
3.08153
2.24313
1.47658
0.723033
0.0878077
-0.255139
-0.290847
-0.175106
-0.286029
-0.839066
-0.611198
10.1361
10.2328
9.92627
9.9049
10.1918
10.3382
9.88781
8.55678
7.02969
5.70072
4.91402
4.44169
3.85706
3.04935
2.1787
1.431
0.732697
0.00789846
-0.624324
-0.963474
-0.948941
-0.75768
-0.82809
-1.30268
-1.01044
10.1274
10.2075
9.86657
9.93551
10.288
10.493
9.82895
8.15519
6.38029
5.16353
4.53419
4.14603
3.62666
2.91204
2.15237
1.49341
0.847525
0.112045
-0.578048
-0.996843
-1.04812
-0.890458
-0.909354
-1.51705
-1.07919
10.1148
10.1816
9.77023
9.83057
10.1404
10.3791
9.44107
7.53746
5.93699
5.15339
4.86401
4.6137
4.13909
3.52146
2.89097
2.30148
1.64176
0.834518
0.0581699
-0.450157
-0.613523
-0.585938
-0.666827
-1.39796
-0.961752
10.1028
10.16
9.68084
9.69823
9.87098
9.79134
8.36899
6.34997
5.30025
5.22533
5.41947
5.44432
5.11311
4.58851
4.0087
3.37756
2.60877
1.72614
0.92767
0.41238
0.181718
0.0803106
-0.233616
-1.00973
-0.786793
10.0892
10.1551
9.59075
9.56337
9.59301
8.82337
6.72194
4.7822
4.4179
4.99711
5.71903
6.17286
6.12996
5.72877
5.10639
4.31307
3.40538
2.52535
1.83
1.43567
1.24986
1.12263
0.590089
-0.368679
-0.565754
10.0734
10.1279
9.4634
9.32686
9.15692
7.44469
4.73639
3.22297
3.52384
4.62737
5.79099
6.58434
6.82296
6.54972
5.88739
5.00959
4.08914
3.30131
2.76425
2.522
2.44073
2.34668
1.64106
0.453411
-0.343386
10.0525
10.0894
9.30332
8.92179
8.2346
5.53369
2.71435
1.8909
2.857
4.43656
5.90677
6.90772
7.26827
7.02472
6.36538
5.53979
4.73828
4.10532
3.71669
3.57033
3.53405
3.37061
2.50618
1.13461
0.0460873
10.035
10.0289
9.12146
8.40706
6.8592
3.43787
1.07971
1.11408
2.72916
4.65258
6.26857
7.33073
7.69327
7.43348
6.80208
6.07764
5.42195
4.91661
4.59085
4.46388
4.43666
4.1733
3.2176
1.64309
0.461378
10.0234
9.98
9.02788
8.0193
5.51302
1.78286
0.329109
1.25356
3.32347
5.35105
6.92015
7.90239
8.21018
7.94045
7.34084
6.69164
6.13619
5.68788
5.33308
5.13401
5.05937
4.68878
3.89484
1.98014
0.484997
10.0328
9.96387
9.05408
7.8401
4.57596
1.10888
0.774933
2.35139
4.45289
6.24996
7.59037
8.41581
8.65998
8.39822
7.84591
7.24779
6.7196
6.26108
5.84917
5.55052
5.41525
4.87249
4.43711
2.74923
-0.247003
10.0503
9.99176
9.14831
7.81431
4.2824
1.68078
2.41478
4.12769
5.74011
6.95472
7.8931
8.52033
8.70077
8.48634
8.02856
7.49191
6.96187
6.47331
6.03779
5.70641
5.52551
4.99356
4.39802
4.12468
0.735998
10.0886
9.97862
9.16424
7.88676
4.66769
3.38673
4.9055
6.25179
6.9598
7.33964
7.70885
8.03902
8.12596
7.96293
7.60862
7.15664
6.6553
6.17676
5.77687
5.49587
5.33969
4.97611
4.31761
3.32452
0.922042
10.1327
9.89807
9.11961
8.027
5.58658
5.68858
7.68383
8.50044
8.22088
7.69602
7.33961
7.18439
7.06428
6.871
6.55771
6.16946
5.72148
5.29112
4.96254
4.78649
4.72471
4.51243
3.99051
3.01077
1.37889
10.2042
9.81906
9.03092
8.11636
6.67476
8.04082
10.5389
10.9552
9.84666
8.43662
7.27352
6.47781
5.97741
5.6416
5.33033
4.99821
4.61108
4.23433
3.96628
3.8678
3.8898
3.77149
3.42639
2.61114
1.4211
10.2882
9.78922
8.93108
8.25824
7.70481
10.0494
13.3606
13.7833
12.0366
9.81375
7.95769
6.68343
5.85463
5.30753
4.90684
4.5677
4.21794
3.88243
3.6484
3.56108
3.59441
3.49156
3.1983
2.37506
1.29684
10.4196
9.83631
8.8273
8.36142
8.47923
11.6256
15.9561
17.053
15.1082
12.2717
9.8895
8.29238
7.24235
6.48776
5.87705
5.36297
4.89109
4.47363
4.17811
4.03698
4.02554
3.92223
3.60341
2.68047
1.46604
10.5249
9.98059
8.78575
8.26208
8.84813
12.7707
17.899
19.9939
18.5348
15.444
12.6083
10.5838
9.17856
8.13524
7.2603
6.52774
5.89624
5.37344
5.00315
4.81726
4.75939
4.66116
4.35989
3.32155
1.83922
10.517
10.1403
8.89355
7.88802
8.52884
13.1259
18.9363
21.7397
20.789
17.5962
14.2949
11.704
9.80372
8.3841
7.27204
6.41439
5.76928
5.31429
5.05604
4.97616
5.01663
4.9997
4.78144
3.73773
1.92316
10.4996
10.1673
9.00984
7.33398
7.55243
12.4724
19.1353
22.4794
21.4648
18.0787
14.3888
11.2716
8.85615
7.02299
5.66321
4.72606
4.15727
3.89231
3.88675
4.05845
4.31969
4.48985
4.40156
3.40506
1.78471
10.0601
10.0529
9.56972
9.37668
9.73111
9.93927
9.77109
9.41638
8.95297
8.62432
8.80799
9.63713
10.3408
9.9068
8.89052
7.81312
6.75681
5.70133
4.73274
3.94267
3.40193
3.02089
2.76902
2.13891
1.24125
10.0261
9.97883
9.46598
9.41622
9.82526
9.96646
9.56341
8.86768
8.19604
7.63127
7.56498
8.01262
7.99443
7.30865
6.38412
5.53985
4.74891
3.96767
3.25807
2.70335
2.39872
2.26539
2.18127
1.57952
0.970284
10.0114
9.94663
9.44348
9.53373
9.97072
10.1023
9.52916
8.55017
7.55652
6.74992
6.22132
5.8395
5.32038
4.57951
3.74324
2.98211
2.3128
1.69146
1.17966
0.855922
0.795811
0.910132
1.0472
0.666483
0.475189
10.002
9.92975
9.42634
9.56487
10.0474
10.1729
9.52161
8.41249
7.14823
5.91816
4.80766
3.86614
3.03021
2.15547
1.28299
0.528149
-0.126314
-0.706535
-1.11665
-1.26706
-1.12632
-0.802176
-0.451444
-0.541817
-0.161598
9.99662
9.93441
9.43618
9.56313
10.0198
10.0655
9.3876
8.24666
6.80188
5.15979
3.65716
2.5235
1.64269
0.76169
-0.127719
-0.941193
-1.68354
-2.34142
-2.77861
-2.86509
-2.61556
-2.19154
-1.78333
-1.7168
-0.743821
9.99054
9.93078
9.47959
9.58896
9.92507
9.88339
9.15562
7.81873
6.11672
4.29906
2.84232
1.87905
1.12204
0.292933
-0.59071
-1.44922
-2.26744
-3.01914
-3.55924
-3.71382
-3.48387
-3.0409
-2.73156
-2.77518
-1.52498
9.98048
9.89812
9.5184
9.65695
9.90247
9.81535
8.91463
7.1468
5.10059
3.52972
2.59644
1.97214
1.33292
0.541717
-0.31746
-1.16439
-2.00379
-2.82186
-3.48285
-3.78134
-3.68177
-3.30301
-3.12829
-3.553
-2.22436
9.967
9.8518
9.52807
9.69844
9.94345
9.84427
8.56794
6.30481
4.29225
3.28458
2.91973
2.58046
1.99409
1.19913
0.366826
-0.411378
-1.21214
-2.06735
-2.83412
-3.27835
-3.34847
-3.0758
-3.01919
-3.81915
-2.67173
9.95019
9.82495
9.54082
9.77044
9.97439
9.67676
7.95606
5.56132
4.01914
3.58697
3.60942
3.4518
2.9194
2.15806
1.41304
0.765544
0.0282361
-0.869999
-1.74835
-2.32647
-2.56642
-2.45311
-2.52096
-3.58771
-2.30241
9.93038
9.8097
9.54904
9.82636
9.95886
9.20267
7.01026
4.9109
4.0344
4.04059
4.35402
4.45381
4.11579
3.49902
2.87499
2.28586
1.51828
0.540784
-0.440911
-1.12954
-1.50837
-1.52872
-1.8352
-3.07974
-1.91815
9.90578
9.78971
9.53727
9.81742
9.85628
8.30572
5.88331
4.36526
4.04553
4.38181
4.9908
5.45279
5.44575
5.0213
4.40733
3.69071
2.81632
1.82391
0.862213
0.166234
-0.246806
-0.296965
-0.858561
-2.77443
-1.69922
9.87709
9.74499
9.505
9.63022
9.22609
6.84723
4.60971
3.74105
3.90081
4.56628
5.48176
6.28419
6.57135
6.28305
5.60984
4.78697
3.90123
2.99123
2.14377
1.50934
1.11832
1.02956
0.301932
-2.08434
-1.31138
9.84339
9.68968
9.40861
9.16072
7.90566
5.06093
3.26341
2.92903
3.53321
4.55621
5.77256
6.85816
7.36205
7.17319
6.51109
5.70451
4.88351
4.06315
3.30959
2.73314
2.33289
2.164
1.25947
-0.903361
-0.757381
9.80865
9.61891
9.21337
8.47399
6.33056
3.32842
2.00036
2.1641
3.22323
4.58877
6.01501
7.23651
7.85279
7.78472
7.22942
6.51551
5.76111
4.98581
4.25674
3.68332
3.23944
3.07121
2.13734
0.419631
-0.261199
9.77217
9.54626
8.9866
7.80594
4.93438
1.98415
1.17525
1.91636
3.42767
5.03102
6.49846
7.6415
8.21242
8.2001
7.75949
7.15132
6.4622
5.69822
4.92717
4.29734
3.7861
3.65538
2.72605
1.59033
0.0867615
9.74199
9.4775
8.77815
7.19911
3.85654
1.23453
1.11781
2.48749
4.30857
5.92717
7.23172
8.12877
8.50447
8.40404
7.97214
7.41213
6.76524
6.00739
5.20457
4.5483
4.02772
3.87908
3.01475
2.13357
0.166532
9.71866
9.43403
8.57484
6.63808
3.18017
1.18024
1.89284
3.73666
5.52333
6.86375
7.84977
8.45211
8.58301
8.31304
7.79574
7.20513
6.5557
5.81445
5.04112
4.42032
3.94027
3.69486
2.89861
1.66649
0.108263
9.71214
9.39408
8.3248
6.19874
2.97392
1.79754
3.29383
5.30244
6.70573
7.49214
8.03621
8.3519
8.29944
7.90205
7.29465
6.64266
5.98655
5.30179
4.60684
4.04397
3.60077
3.27714
2.56899
1.43391
0.255687
9.75217
9.3663
8.0351
5.93794
3.27679
2.96482
5.01503
6.92418
7.79801
7.9618
7.96185
7.90625
7.70561
7.25574
6.56544
5.80973
5.1088
4.48707
3.92813
3.49176
3.15333
2.84857
2.31828
1.29101
0.346098
9.85968
9.36914
7.77072
5.78756
3.9786
4.51677
6.9104
8.65117
9.03178
8.60639
7.99148
7.42143
6.93836
6.42959
5.79088
5.06249
4.34252
3.72399
3.23346
2.8877
2.6572
2.40835
2.02209
1.22389
0.473696
10.0444
9.43014
7.54804
5.70451
4.7748
6.06579
8.87576
10.5727
10.5587
9.58767
8.43605
7.42643
6.60607
5.92366
5.32357
4.7314
4.12438
3.57146
3.14197
2.8382
2.63074
2.36653
2.08015
1.3628
0.601591
10.3005
9.55696
7.34863
5.48452
5.06314
7.02428
10.6648
12.7084
12.5651
11.276
9.82701
8.56309
7.48013
6.5419
5.76379
5.10853
4.51973
4.00498
3.62332
3.3554
3.13952
2.82136
2.55643
1.79101
0.93429
10.4915
9.68392
7.1137
4.99596
4.72185
7.50596
12.356
15.1513
15.3516
14.1568
12.5977
11.1237
9.77961
8.51417
7.34735
6.3561
5.52003
4.84756
4.37379
4.06435
3.83513
3.47463
3.15437
2.28825
1.28137
10.4599
9.70037
6.97807
4.38039
4.08758
7.93456
13.8917
17.5345
18.3235
17.2586
15.4459
13.5772
11.8308
10.1823
8.62306
7.25507
6.12708
5.27286
4.73021
4.4269
4.24367
3.96781
3.61044
2.63718
1.51485
10.3439
9.69867
7.23911
4.18964
4.407
9.44207
15.9046
19.9064
20.8544
19.4826
17.0902
14.5927
12.2757
10.1404
8.16899
6.4555
5.08488
4.13118
3.63306
3.47023
3.47514
3.46287
3.27327
2.27039
1.17614
9.98523
10.0109
9.64854
9.51129
9.71819
9.86494
9.58111
9.04993
8.41074
7.75336
7.4872
7.22567
6.21098
4.75324
3.42035
2.45954
1.7457
1.11597
0.536058
0.10374
0.000227474
0.0817619
0.379199
0.481892
0.713954
9.96028
9.96181
9.62743
9.56897
9.82854
9.96151
9.5083
8.66915
7.77161
6.90717
6.24765
5.48512
4.22527
2.69656
1.37078
0.498106
-0.080469
-0.550894
-0.945705
-1.20461
-1.14098
-0.877674
-0.45207
-0.327526
0.270926
9.94606
9.94388
9.61524
9.64285
9.92633
9.99964
9.40527
8.35521
7.19878
6.06624
4.97799
3.77953
2.38318
0.923093
-0.297827
-1.1357
-1.74803
-2.25129
-2.63797
-2.85207
-2.7579
-2.33429
-1.77943
-1.35242
-0.311861
9.93341
9.91025
9.59692
9.67676
9.99471
10.0038
9.30505
8.15691
6.86275
5.45036
3.97592
2.51735
1.05789
-0.356352
-1.53907
-2.44027
-3.18371
-3.82025
-4.2974
-4.50312
-4.40393
-3.84042
-3.15546
-2.48836
-1.01104
9.92384
9.87864
9.58394
9.72632
10.0207
9.96237
9.18552
7.98146
6.72364
5.18089
3.52971
2.01154
0.604813
-0.738727
-1.91255
-2.91747
-3.8438
-4.6707
-5.29803
-5.56349
-5.44606
-4.84434
-4.17258
-3.46414
-1.58758
9.91656
9.8543
9.57347
9.74121
9.98994
9.85281
9.08729
7.85939
6.4631
4.97438
3.48758
2.09852
0.769819
-0.554159
-1.79206
-2.95414
-4.10106
-5.13175
-5.90224
-6.24186
-6.10821
-5.49749
-4.91842
-4.38313
-2.17293
9.91116
9.8423
9.58246
9.75693
9.96551
9.73947
8.87967
7.52937
6.11569
4.88341
3.72634
2.5167
1.22749
-0.130036
-1.47284
-2.79215
-4.12965
-5.33526
-6.23006
-6.63168
-6.51566
-5.87695
-5.47078
-5.32059
-3.02352
9.906
9.84339
9.6192
9.81759
9.95928
9.57122
8.48517
7.04344
5.82005
4.93514
4.0904
3.04475
1.7961
0.413651
-0.990055
-2.35509
-3.73647
-5.02049
-6.02488
-6.5214
-6.49053
-5.86967
-5.67908
-5.91416
-3.62956
9.89722
9.85433
9.65985
9.88744
9.90454
9.27263
7.98235
6.60256
5.61588
5.00199
4.44913
3.63548
2.51222
1.19887
-0.0790578
-1.24266
-2.47192
-3.76488
-4.91591
-5.60133
-5.75361
-5.29292
-5.38867
-5.7489
-3.88549
9.88124
9.85094
9.67947
9.87978
9.73705
8.80828
7.37948
6.16019
5.37295
4.9754
4.74495
4.26052
3.36837
2.27081
1.30719
0.471993
-0.58992
-1.91068
-3.20938
-4.07627
-4.40102
-4.10658
-4.60998
-5.45735
-3.20066
9.85518
9.83272
9.67464
9.78302
9.40495
8.14181
6.72837
5.74233
5.16189
4.94849
5.01546
4.86448
4.25731
3.42263
2.65046
1.90176
0.898893
-0.357856
-1.61068
-2.45601
-2.80613
-2.57653
-3.39039
-5.08397
-2.76517
9.8195
9.79751
9.64242
9.55446
8.76593
7.21681
5.99441
5.29649
4.97563
4.97525
5.28713
5.40248
5.03882
4.37994
3.62317
2.86264
1.94597
0.844595
-0.22295
-0.930103
-1.23112
-1.05218
-1.9837
-4.17351
-2.24158
9.77362
9.74709
9.55617
9.13791
7.82507
6.11666
5.08845
4.66675
4.68492
5.01754
5.59653
5.92366
5.71705
5.15158
4.44373
3.73619
2.9466
2.01849
1.1247
0.509196
0.217122
0.344022
-0.71425
-2.8865
-1.38952
9.72203
9.67521
9.37961
8.55856
6.75505
4.93425
4.00773
3.78441
4.13506
4.91067
5.878
6.46681
6.38888
5.9094
5.29085
4.66836
4.00507
3.2397
2.4559
1.8434
1.46444
1.51757
0.541016
-1.42158
-0.492653
9.66564
9.58891
9.11356
7.88238
5.70111
3.79436
2.90235
2.83591
3.52025
4.73155
6.09837
6.979
7.06431
6.68512
6.13621
5.58478
4.98866
4.2877
3.53251
2.89808
2.33575
2.16878
1.55108
-0.250064
0.220334
9.61012
9.50591
8.79898
7.21057
4.76143
2.81961
2.01342
2.232
3.28069
4.81468
6.39836
7.44385
7.64923
7.34138
6.81295
6.23431
5.58014
4.83161
4.07528
3.45323
2.84995
2.63531
2.11232
0.619736
0.348879
9.56022
9.44113
8.51064
6.61073
4.023
2.13605
1.57182
2.16143
3.47166
5.12962
6.7244
7.77631
8.01474
7.70965
7.1215
6.40127
5.61831
4.83558
4.13499
3.60007
3.09146
2.85184
2.31326
1.0872
0.349654
9.52453
9.39441
8.23984
6.10087
3.51165
1.8388
1.65943
2.59435
3.99736
5.53378
6.92959
7.8592
8.06008
7.70969
7.02647
6.17289
5.30994
4.54928
3.92639
3.48961
3.07962
2.84304
2.37606
1.39462
0.469152
9.53935
9.36481
7.94886
5.6603
3.24932
1.98625
2.26009
3.47003
4.86039
6.10554
7.10251
7.72245
7.76248
7.34668
6.61658
5.72371
4.85233
4.13874
3.5862
3.22729
2.91483
2.70997
2.33268
1.53539
0.618537
9.64129
9.37811
7.69271
5.37141
3.35612
2.63114
3.37638
4.769
6.02658
6.89953
7.44102
7.64286
7.40333
6.84929
6.08081
5.21623
4.40343
3.74837
3.25249
2.93134
2.68112
2.48658
2.19175
1.55682
0.669152
9.8344
9.4707
7.51452
5.20095
3.72931
3.5656
4.79594
6.35435
7.41128
7.87551
8.02917
7.88814
7.40109
6.70206
5.90052
5.09403
4.34644
3.71695
3.22869
2.89298
2.638
2.37933
2.11573
1.44714
0.594076
10.082
9.60164
7.28392
4.77852
3.80311
4.30101
6.23492
8.12467
9.09134
9.28788
9.20868
8.97653
8.44593
7.59762
6.61682
5.70273
4.90938
4.2655
3.77689
3.41866
3.12559
2.7782
2.42651
1.58119
0.77082
10.2496
9.59722
6.83198
4.07364
3.455
4.71455
7.61862
10.0961
11.2736
11.5198
11.3928
11.1698
10.7257
9.85482
8.64257
7.36583
6.2093
5.28997
4.64045
4.1904
3.84937
3.49067
3.10917
2.1271
1.21565
10.172
9.36836
6.38422
3.52864
3.26501
5.43206
9.42748
12.7559
14.2893
14.5128
14.125
13.5962
12.9412
11.9674
10.6242
9.07966
7.5586
6.276
5.34756
4.74568
4.34655
4.00101
3.61266
2.56347
1.63194
9.92909
9.17907
6.48852
3.72403
4.41829
7.67433
12.1974
15.9756
17.7588
17.8142
16.9441
15.8396
14.5949
13.1202
11.3932
9.53268
7.73148
6.20635
5.10577
4.4229
4.02767
3.74392
3.37829
2.27913
1.46192
9.89081
9.92579
9.66037
9.50154
9.55202
9.42593
8.98026
8.24874
7.45622
6.63988
5.75781
4.48304
2.80186
1.06779
-0.30369
-1.04944
-1.31163
-1.48633
-1.77463
-2.09673
-2.21169
-2.13672
-1.83529
-1.29698
-0.0597086
9.87568
9.89592
9.67092
9.51057
9.53809
9.42924
8.88767
8.00733
7.06505
6.05433
4.90285
3.41036
1.6205
-0.16201
-1.57822
-2.38203
-2.69673
-2.86346
-3.07769
-3.25506
-3.2055
-2.90031
-2.39801
-1.68992
-0.382217
9.86716
9.89422
9.65598
9.50846
9.55775
9.43466
8.8249
7.85923
6.79432
5.62549
4.28458
2.67178
0.819777
-0.999731
-2.44169
-3.31632
-3.78809
-4.12793
-4.4591
-4.65312
-4.5868
-4.10309
-3.40994
-2.44117
-0.912444
9.85823
9.86477
9.61302
9.51197
9.61854
9.48036
8.827
7.82918
6.70295
5.44789
3.95333
2.19804
0.284066
-1.57311
-3.08156
-4.06325
-4.73923
-5.30831
-5.79328
-6.01039
-5.91638
-5.32939
-4.42912
-3.25309
-1.39369
9.85174
9.8278
9.56677
9.54765
9.70239
9.54116
8.88646
7.91124
6.79953
5.53301
3.98546
2.13996
0.132734
-1.82695
-3.47757
-4.61033
-5.45673
-6.17962
-6.73357
-6.92922
-6.73763
-6.07391
-5.05708
-3.89633
-1.71149
9.84927
9.80736
9.53074
9.57866
9.75989
9.57611
8.9326
8.00311
6.97385
5.78541
4.21905
2.25832
0.0989241
-2.02252
-3.88159
-5.24946
-6.31604
-7.20033
-7.79025
-7.90057
-7.55144
-6.74837
-5.64144
-4.39527
-1.93558
9.85044
9.80879
9.53183
9.62381
9.79309
9.56692
8.90241
8.04761
7.16231
6.07474
4.48486
2.38669
0.0418942
-2.27038
-4.35514
-6.01241
-7.35161
-8.40988
-9.03777
-9.05117
-8.5431
-7.56388
-6.38569
-4.90629
-2.07308
9.85165
9.82501
9.56437
9.69418
9.81033
9.47074
8.76257
7.98037
7.18276
6.17325
4.64478
2.50239
0.0284737
-2.42725
-4.64879
-6.48615
-8.01397
-9.20701
-9.8895
-9.88866
-9.27168
-8.20911
-7.19756
-5.42921
-2.34826
9.84732
9.83983
9.59972
9.74013
9.78251
9.28451
8.50167
7.7096
6.91701
6.03812
4.77894
2.78155
0.295299
-2.127
-4.17017
-5.83593
-7.34653
-8.65064
-9.50938
-9.67202
-9.06788
-8.15912
-7.58462
-5.72893
-3.48931
9.83193
9.83384
9.61691
9.72042
9.62083
8.92061
8.03293
7.19341
6.42034
5.77862
4.9784
3.29649
0.978867
-1.09161
-2.5471
-3.74784
-5.12989
-6.59158
-7.74093
-8.16921
-7.69223
-6.97933
-6.99034
-6.64823
-8.11854
9.80197
9.80801
9.60948
9.62366
9.28946
8.39802
7.47432
6.67758
5.96422
5.52739
5.1607
3.8536
1.9042
0.294199
-0.738336
-1.69434
-2.90116
-4.29406
-5.48556
-6.01867
-5.6932
-5.10694
-5.65512
-5.85867
-4.77468
9.7569
9.75785
9.56084
9.44002
8.77062
7.73275
6.91974
6.27508
5.61995
5.28286
5.23558
4.31343
2.77418
1.42282
0.474168
-0.356996
-1.35398
-2.48618
-3.42605
-3.8255
-3.62019
-3.22229
-4.04388
-4.66843
-2.3098
9.69566
9.68875
9.45726
9.12295
8.05543
6.9576
6.33277
5.84023
5.25808
5.0311
5.23689
4.68057
3.45946
2.29208
1.4866
0.840492
0.0739134
-0.823457
-1.52111
-1.78779
-1.62265
-1.41022
-2.44536
-3.03213
-1.30193
9.62121
9.59577
9.27272
8.6234
7.18456
6.09389
5.50904
4.97652
4.55517
4.67242
5.22118
5.02891
4.09829
3.19745
2.60587
2.14514
1.61128
0.928968
0.359988
0.0623937
0.136865
0.154102
-1.06456
-1.37756
-0.460915
9.53558
9.48176
8.99497
7.95617
6.25041
5.05022
4.21247
3.58907
3.55481
4.30752
5.30885
5.43512
4.76602
4.10139
3.6744
3.3466
2.93469
2.3838
1.86033
1.46792
1.36486
1.17198
0.0584493
-0.406957
0.159335
9.44597
9.34306
8.64649
7.1969
5.26588
3.74741
2.60902
2.1521
2.74287
4.23686
5.67436
5.99537
5.43346
4.81091
4.34323
3.95212
3.51867
3.01013
2.55186
2.18362
1.94832
1.70318
0.856527
0.193642
0.481086
9.36109
9.20288
8.27759
6.43096
4.22838
2.36717
1.17439
1.11983
2.36334
4.46666
6.21236
6.6145
5.9999
5.18507
4.40885
3.7734
3.29398
2.91509
2.62829
2.40904
2.18923
1.97734
1.32852
0.636219
0.353451
9.29609
9.09833
7.93718
5.71117
3.27069
1.2666
0.298546
0.775163
2.50564
4.88823
6.68844
7.06196
6.32542
5.25058
4.13039
3.26355
2.7768
2.54838
2.44856
2.39037
2.25382
2.09675
1.59932
0.906491
0.188869
9.26276
9.05268
7.64888
5.08967
2.595
0.70536
0.154162
1.15592
3.14868
5.48266
7.09011
7.35577
6.47488
5.21017
3.90873
2.9182
2.39026
2.20747
2.20957
2.27015
2.22773
2.11557
1.73584
1.1106
0.205648
9.2863
9.07153
7.51007
4.74211
2.38972
0.816005
0.715731
2.07378
4.09094
6.06609
7.29888
7.51055
6.67168
5.35901
3.98585
2.9373
2.3398
2.1014
2.07808
2.16953
2.19592
2.10627
1.79615
1.1898
0.335168
9.37992
9.13121
7.52325
4.70271
2.59096
1.35427
1.67778
3.2467
5.08017
6.54058
7.39165
7.57317
6.95024
5.79976
4.48024
3.40787
2.74522
2.43044
2.31168
2.30348
2.27316
2.14501
1.84798
1.25129
0.343498
9.50669
9.14805
7.42355
4.59673
2.83904
1.9571
2.61283
4.27748
5.85683
6.90618
7.51843
7.78097
7.49545
6.6717
5.49034
4.36357
3.55948
3.10625
2.88142
2.77107
2.63981
2.39567
2.02902
1.32276
0.416183
9.57421
9.04717
7.08989
4.40174
3.10117
2.68546
3.76035
5.63221
7.19154
8.10266
8.59889
8.91356
8.84189
8.31309
7.36326
6.20372
5.10204
4.267
3.72696
3.40308
3.15439
2.84393
2.42244
1.61591
0.822407
9.47211
8.8127
6.74931
4.33386
3.51986
3.96826
5.94801
8.35018
9.99719
10.6943
10.8636
10.8183
10.5497
10.0078
9.16885
8.06031
6.78484
5.56555
4.58835
3.91765
3.46463
3.06626
2.65263
1.89136
1.12046
9.25762
8.64273
6.88412
4.8275
4.70021
6.23122
9.10005
12.0355
13.8382
14.3704
14.1834
13.695
12.9586
11.9796
10.7876
9.38049
7.8115
6.25924
4.92989
3.94726
3.2885
2.79397
2.36597
1.41878
0.786515
9.76129
9.76248
9.5391
9.33846
9.2927
9.03212
8.44936
7.59305
6.67143
5.61647
4.26272
2.50665
0.677335
-0.791888
-1.63901
-1.68892
-1.15155
-0.772415
-0.845382
-1.26053
-1.7015
-1.89301
-1.74079
-1.28068
-0.250928
9.75628
9.7488
9.54673
9.32784
9.21336
8.97321
8.40077
7.49777
6.4528
5.25441
3.72691
1.778
-0.226904
-1.85556
-2.85352
-3.08485
-2.64751
-2.19507
-2.08821
-2.32979
-2.57275
-2.52634
-2.14832
-1.49702
-0.496643
9.75556
9.76445
9.55482
9.33154
9.20184
8.9737
8.40496
7.48254
6.37165
5.09592
3.45347
1.35444
-0.884924
-2.76601
-3.99552
-4.4461
-4.20513
-3.80469
-3.61195
-3.71525
-3.835
-3.53664
-2.86153
-1.9354
-0.923682
9.7551
9.76013
9.51884
9.34519
9.27314
9.06961
8.49957
7.55247
6.37589
4.99832
3.16417
0.788512
-1.70524
-3.78334
-5.16915
-5.74462
-5.68483
-5.43686
-5.25845
-5.16575
-5.10523
-4.5663
-3.53207
-2.33456
-1.15489
9.75661
9.74524
9.47629
9.37211
9.39758
9.22438
8.67776
7.78469
6.63911
5.12504
2.9759
0.198485
-2.64956
-4.94511
-6.50187
-7.17936
-7.19918
-6.99226
-6.76012
-6.39923
-5.98549
-5.23606
-3.89287
-2.6559
-1.3044
9.76128
9.73836
9.4528
9.41555
9.50921
9.32488
8.79252
8.02383
7.01346
5.42723
2.96212
-0.36184
-3.7197
-6.29627
-8.05767
-8.88202
-9.01299
-8.85431
-8.49921
-7.86815
-7.01319
-5.94525
-4.37057
-2.94863
-1.43714
9.76807
9.74277
9.47067
9.50045
9.59727
9.36321
8.85788
8.25621
7.39133
5.82171
3.00827
-0.904523
-4.71539
-7.53884
-9.47054
-10.5169
-10.9167
-10.8921
-10.4148
-9.50736
-8.25829
-6.80715
-4.9691
-3.2968
-1.61454
9.77309
9.75685
9.52533
9.59815
9.64819
9.32327
8.83402
8.3446
7.58074
6.09083
3.08926
-1.18781
-5.29265
-8.27215
-10.2899
-11.5658
-12.3118
-12.51
-12.0228
-10.9118
-9.38886
-7.71832
-5.7038
-3.7324
-1.76279
9.77015
9.76666
9.59017
9.665
9.63857
9.14965
8.5826
8.09178
7.37266
6.13389
3.41224
-0.88802
-5.08569
-7.97031
-9.75945
-11.052
-12.0696
-12.6166
-12.3625
-11.3082
-9.69941
-8.05942
-6.25835
-3.99208
-1.80519
9.75267
9.75538
9.6333
9.69536
9.4819
8.74498
8.04135
7.47636
6.79268
6.01011
3.95655
-0.0182764
-3.91721
-6.22291
-7.33426
-8.34825
-9.51451
-10.514
-10.7585
-10.0795
-8.67488
-7.2563
-6.01643
-3.91603
-2.1758
9.71668
9.7195
9.64798
9.6589
9.15364
8.19776
7.47525
6.82366
6.10626
5.70446
4.35027
1.01904
-2.20246
-3.87186
-4.58514
-5.31783
-6.28099
-7.33542
-7.88879
-7.61122
-6.58763
-5.42248
-4.89655
-3.38768
-1.4517
9.66106
9.65814
9.61388
9.51296
8.66553
7.6644
7.0936
6.32029
5.45875
5.26001
4.47618
1.89615
-0.687462
-2.12814
-2.75466
-3.24656
-3.85924
-4.55976
-4.94233
-4.76123
-4.08356
-3.25037
-3.24569
-2.5492
-1.16366
9.58515
9.57734
9.50377
9.19399
8.06855
7.20682
6.73613
5.72597
4.7028
4.6726
4.36269
2.42495
0.269821
-0.964594
-1.39507
-1.59702
-1.88285
-2.25784
-2.40401
-2.1735
-1.65121
-1.22618
-1.61547
-1.2118
-0.778447
9.48909
9.46455
9.2933
8.66383
7.36899
6.61286
5.91262
4.62819
3.67768
4.00665
4.16173
2.73182
0.997241
0.0844465
-0.104073
-0.037457
-0.0624471
-0.216029
-0.224766
-0.0313273
0.305348
0.381076
-0.307762
-0.031776
-0.195402
9.37465
9.31298
8.9507
7.92351
6.50522
5.56714
4.49455
3.20463
2.69242
3.51417
4.08359
3.06132
1.71872
1.04664
0.982299
1.14263
1.23189
1.20553
1.21189
1.28764
1.40808
1.35795
0.567057
0.6317
0.178316
9.24672
9.11412
8.47928
7.01943
5.39293
4.07959
2.82736
1.9685
2.21781
3.49872
4.33439
3.57753
2.42347
1.70209
1.46258
1.45327
1.48721
1.53653
1.63174
1.75005
1.80854
1.76777
1.06926
0.816196
0.326518
9.11558
8.90194
7.95615
6.054
4.09974
2.46108
1.35214
1.26406
2.40607
4.00548
4.85184
4.1496
2.90464
1.85871
1.21673
0.947758
0.964679
1.18005
1.47833
1.76329
1.90137
1.90536
1.27192
0.832133
0.283072
9.0008
8.72167
7.45425
5.16052
2.90222
1.14996
0.438704
1.17434
3.02618
4.7266
5.36697
4.57327
3.15311
1.80631
0.845175
0.411948
0.45157
0.797059
1.25676
1.67133
1.8823
1.9277
1.41524
0.715029
0.0959642
8.91523
8.62835
7.06172
4.50145
2.06413
0.443781
0.184002
1.56023
3.76594
5.38062
5.74752
4.89934
3.40937
1.94211
0.830808
0.303299
0.313679
0.691147
1.20398
1.67368
1.89739
1.93066
1.57529
0.92418
0.262452
8.87599
8.63532
6.96782
4.22955
1.73125
0.379393
0.568731
2.28611
4.44247
5.70007
5.74981
4.9953
3.66153
2.31775
1.20249
0.60198
0.566853
0.915372
1.3981
1.84013
2.04565
2.03913
1.78227
1.27183
0.554108
8.88486
8.67449
7.29846
4.46493
1.81665
0.676618
1.22761
2.95496
4.68378
5.3768
5.19296
4.63924
3.71361
2.69898
1.77544
1.21605
1.15569
1.47586
1.89366
2.21979
2.3408
2.248
1.96004
1.47602
0.717499
8.9275
8.71859
7.70586
4.91914
2.38583
1.23534
1.73965
3.16853
4.36575
4.64331
4.39441
4.00638
3.4717
2.92069
2.40901
2.06497
2.01378
2.25612
2.56336
2.7712
2.76798
2.52307
2.09048
1.5743
0.759322
8.93843
8.69271
7.82377
5.3603
3.21296
2.0609
2.41087
3.72129
4.77602
4.99469
4.7989
4.46508
3.92646
3.49553
3.27552
3.20926
3.21237
3.27468
3.32234
3.27702
3.10693
2.75977
2.23441
1.61215
0.947909
8.84958
8.54364
7.79787
5.78426
3.90436
3.18843
4.03952
5.66774
6.79108
6.95646
6.5459
5.90815
5.15646
4.55831
4.29849
4.33512
4.4153
4.35118
4.08111
3.68769
3.25618
2.76376
2.21877
1.55368
1.00463
8.72308
8.47962
7.95666
6.46277
5.0228
5.13564
6.90729
9.08116
10.3452
10.3946
9.62846
8.52356
7.4117
6.50794
5.93823
5.66521
5.47145
5.12739
4.54015
3.81348
3.0985
2.38463
1.76428
1.02535
0.516671
9.62022
9.60815
9.36922
9.11
8.93658
8.62482
7.96382
7.00171
5.89082
4.57809
2.83033
0.806399
-0.853528
-1.65407
-1.53436
-0.546279
0.517999
0.581698
0.274416
-0.296235
-0.949852
-1.34414
-1.10713
-0.395555
0.0238215
9.62145
9.60275
9.36479
9.10085
8.88449
8.58723
7.96699
6.95114
5.72098
4.23105
2.19998
-0.172732
-2.17706
-3.26566
-3.35325
-2.51225
-1.19295
-0.448054
-0.314598
-0.775641
-1.38587
-1.60432
-1.23826
-0.806263
-0.365795
9.62719
9.61669
9.38987
9.13247
8.8842
8.55988
7.95073
6.87235
5.48797
3.73601
1.31282
-1.53083
-3.92264
-5.27965
-5.57569
-4.98761
-3.59521
-2.2183
-1.47159
-1.61574
-2.00821
-1.95019
-1.48368
-1.13431
-0.720263
9.63547
9.62808
9.3934
9.17347
8.95192
8.62816
8.02525
6.86135
5.17532
2.96284
-0.0397714
-3.45549
-6.16214
-7.59359
-7.89151
-7.3679
-6.00291
-4.42048
-3.27534
-2.89736
-2.8702
-2.48217
-1.79718
-1.21123
-0.733165
9.64626
9.63616
9.38681
9.2281
9.07296
8.79518
8.25049
7.09374
5.18291
2.43382
-1.44649
-5.67105
-8.69788
-10.082
-10.2499
-9.63577
-8.23542
-6.54863
-5.10663
-4.18511
-3.64631
-2.91306
-1.98443
-1.26273
-0.812797
9.65899
9.64797
9.38841
9.27904
9.17198
8.89982
8.36431
7.36186
5.5381
2.35357
-2.60901
-7.74262
-11.1192
-12.4604
-12.587
-11.9825
-10.599
-8.89736
-7.16834
-5.70859
-4.56508
-3.37906
-2.27155
-1.2308
-0.726438
9.67138
9.66452
9.42859
9.35694
9.24403
8.88725
8.37293
7.63089
6.05943
2.51846
-3.31465
-9.11838
-12.777
-14.158
-14.3672
-13.9632
-12.8231
-11.2038
-9.238
-7.25665
-5.52738
-3.84592
-2.56082
-1.22389
-0.502574
9.67882
9.6802
9.49732
9.44693
9.25491
8.76028
8.31167
7.82805
6.47502
2.99255
-3.12229
-9.38598
-13.3421
-14.8036
-15.0752
-14.9418
-14.21
-12.8409
-10.7697
-8.43875
-6.2744
-4.3111
-2.78259
-1.18836
-0.230008
9.67513
9.68378
9.57536
9.53486
9.18934
8.46357
8.03686
7.6769
6.56819
3.8864
-1.87359
-8.40836
-12.5694
-13.8531
-13.922
-13.9652
-13.7514
-12.8714
-11.0123
-8.68005
-6.31913
-4.35423
-2.80857
-1.09206
-0.217389
9.65426
9.66543
9.64502
9.5982
8.9639
7.93983
7.44655
7.08165
6.32139
4.74238
-0.113375
-6.42588
-10.2755
-11.0105
-10.6942
-10.6867
-10.8883
-10.6848
-9.4303
-7.4859
-5.31889
-3.61763
-2.5178
-0.958401
-0.186942
9.61133
9.62464
9.69222
9.57744
8.55497
7.36305
6.81329
6.29446
5.81235
4.93453
1.3261
-4.13593
-7.27327
-7.79878
-7.40531
-7.0152
-6.92683
-7.02195
-6.43833
-5.13732
-3.5238
-2.26742
-1.71241
-0.757023
-0.11659
9.54451
9.55654
9.67751
9.37858
8.04942
6.9347
6.29311
5.4488
5.08075
4.61552
2.1176
-2.25575
-4.8766
-5.49192
-5.04421
-4.27204
-3.69914
-3.50474
-3.15472
-2.41514
-1.4778
-0.667527
-0.604576
-0.353696
0.00190713
9.454
9.46408
9.56126
8.96247
7.52726
6.50727
5.5829
4.3057
4.01357
3.98088
2.1948
-1.22031
-3.42244
-3.91053
-3.29435
-2.24875
-1.31094
-0.820623
-0.544148
-0.144301
0.313791
0.710361
0.22174
0.131566
-0.216184
9.34002
9.35332
9.31586
8.34328
6.89987
5.8145
4.47314
2.87576
2.78892
3.27617
1.93628
-0.758376
-2.44184
-2.65554
-1.79317
-0.649933
0.279431
0.855635
1.17633
1.4181
1.57535
1.65589
0.872818
0.843829
-0.0882894
9.20494
9.21787
8.92966
7.55312
6.0934
4.86625
3.23593
1.60108
1.83282
2.73525
1.78743
-0.337773
-1.55784
-1.64552
-0.802678
0.191862
0.971024
1.49235
1.76212
1.92037
1.95058
1.99567
1.43192
1.24701
0.284036
9.053
9.03412
8.41008
6.61146
5.09847
3.8697
2.31134
1.07677
1.57639
2.62661
2.00716
0.373127
-0.726088
-1.04359
-0.616512
0.0389563
0.689514
1.22318
1.5507
1.75363
1.81326
1.98867
1.65451
1.23668
0.420245
8.89129
8.80953
7.81682
5.63405
3.97266
2.86752
1.85684
1.4114
2.06515
2.85972
2.32368
0.998328
-0.226107
-0.950882
-1.07977
-0.76762
-0.137182
0.567253
1.10189
1.45604
1.58616
1.81128
1.28267
1.45696
0.682257
8.7373
8.5723
7.23021
4.7862
2.94032
2.03796
1.83272
2.17014
2.90786
3.26837
2.50152
1.23719
-0.0386904
-0.948767
-1.39851
-1.33852
-0.751687
0.120794
0.882389
1.39704
1.54237
1.64646
1.22666
1.68874
1.27545
8.6092