/*--------------------------------*- C++ -*----------------------------------*\
  =========                 |
  \\      /  F ield         | OpenFOAM: The Open Source CFD Toolbox
   \\    /   O peration     | Website:  https://openfoam.org
    \\  /    A nd           | Version:  11
     \\/     M anipulation  |
\*---------------------------------------------------------------------------*/
FoamFile
{
    format      ascii;
    class       surfaceScalarField;
    location    "45";
    object      phi;
}
// * * * * * * * * * * * * * * * * * * * * * * * * * * * * * * * * * * * * * //

dimensions      [0 3 -1 0 0 0 0];

internalField   nonuniform List<scalar> 
49858
(
2694.06
312.039
309.292
3142.18
-217.1
345.519
3114.13
51.2607
438.773
2816.21
-187.424
850.239
2214.89
-443.734
1404.71
356.921
282.949
2028.69
-1617.32
-537.224
2793.44
-1583.94
-3676.83
3811.79
-1289.19
-4616.15
4408.16
-597.717
-5329.5
4682.25
483.31
-5959.69
4909.72
1801.7
-6197.77
4956.61
2847.39
-5990.48
5047.18
3374.21
-5567.66
5152.39
3597.71
-5219.77
5129.05
3741.47
-4960.47
4984.11
3918.09
-4752.39
4802.72
4158.26
-4602.91
4621.39
4469.41
-4516.57
4438.88
4868.31
-4453.85
4253.58
5367.31
-4372.78
4035.2
5970.36
-4223.55
3746.35
6775.1
-4027.47
3296.29
7776.92
-3872.45
2898.7
-4706.63
1961.77
3230.12
94.491
280.803
3673.89
-455.616
305.759
3751.26
-131.05
474.018
3307.29
-217.052
795.914
2565.32
-500.468
1195.43
748.378
410.529
2230.22
-153.472
-2668.07
3334.09
415.618
-8334.27
4256.12
1397.45
-10351.6
4831.9
2499.26
-11472.3
5068.77
3617.08
-12270.2
5201.29
4696.03
-12581
5331.89
5692.76
-12430.7
5482.52
6515.49
-11941.3
5593.62
7121.69
-11389.4
5611.59
7587.03
-10919
5551.89
8023.7
-10537
5441.63
8470.11
-10235.6
5295.13
8911.36
-9983.65
5129.72
9320.12
-9736.86
4954.9
9687.23
-9437.99
4763.28
10037.5
-9062.04
4536.63
10481
-8667.72
4227.05
11201.5
-8496.85
3907.78
-9502.5
3152.71
3113.15
13.1051
274.411
3252.32
-352.252
313.764
3303.79
-267.835
488.593
3230.09
-645.545
831.115
2927.43
-962.41
1121.99
1363.36
360.292
2136.24
1366.21
-5651.23
3184.32
2133.47
-12916.5
3952.6
3152.24
-15803.4
4546.49
4161.02
-17207.4
4815
5277.94
-18194
4900.2
6499.31
-18613.5
4913.38
7713.35
-18454.4
4920.72
8795.99
-17894.8
4976.98
9686.66
-17234.6
5053.01
10426.5
-16646.1
5091.3
11103.3
-16150.2
5067
11744
-15716.2
4981.67
12325.6
-15293.7
4860.28
12821.1
-14858.5
4732.12
13219.6
-14363.2
4610.21
13553.3
-13810.2
4477.59
13911.5
-13265.1
4281.17
14477.8
-13065.7
4021.25
-13885.3
3287.16
3068.15
-52.6867
301.614
3142.88
-155.457
316.761
3215.94
-428.477
560.496
3325.15
-1125.4
806.162
2981.69
-1174.66
1084.02
1956.2
-145.867
2063.82
2376.03
-8939.14
3068.65
3170.82
-17176.2
3619.87
4110.69
-20682.3
4062.84
5175.31
-22366.5
4192.87
6425.19
-23413.9
4062.3
7792.41
-23724
3835.89
9154.42
-23408.1
3678.53
10383.3
-22735
3686.9
11422.4
-22015.8
3804.8
12317.7
-21385.2
3905.95
13149.3
-20820.7
3914.9
13940.4
-20246.4
3836.03
14656.6
-19650.6
3723.91
15270.6
-19046
3640.55
15767.2
-18416
3610.24
16167.8
-17763.9
3603.75
16542.7
-17148.4
3542.61
17020.1
-16906.6
3374.44
-17381.4
2766.92
2982.57
-59.2496
335.383
3149.1
-31.7757
298.932
3199.61
-550.101
597.662
3167.12
-1528.16
842.218
2331.93
-1027.12
1125.45
2196.31
-1709.33
2062.16
3035.26
-12535.1
2917.19
3805.96
-21080.2
3251.59
4687.55
-24913.9
3448.98
5790.42
-26643.3
3264.63
7114.26
-27421.6
2776.45
8559.46
-27323.7
2257.61
9992.35
-26698.4
1963.66
11289.6
-25904.5
1972.58
12406.6
-25180.1
2142.01
13389.6
-24545.2
2269.73
14311.2
-23892.5
2266.01
15185.8
-23152
2165.03
15983
-22390.9
2064.75
16685.1
-21697.2
2044.26
17279.4
-21057.3
2124.77
17769.6
-20446.5
2255.65
18201.2
-19874.1
2335.29
18652.9
-19615.1
2272.7
-19706.2
1836.2
2885.72
-13.8113
367.426
3074.36
74.7046
262.516
2928.11
-532.072
621.587
2687.04
-1638.78
1002.05
1797.14
-886.123
1420.17
2265.95
-4319.17
2431.12
3343.36
-16357.5
2889.91
4058.44
-24628.6
2958.34
4892.53
-28410.7
2755.73
6014.94
-29784.5
2099.63
7393.35
-29909.3
1193.39
8895.74
-29183.4
441.595
10379.6
-28201
100.18
11720.7
-27326
156.793
12873.2
-26639.2
376.944
13876.9
-26000.8
520.587
14793.6
-25225.6
509.78
15640.7
-24314.9
423.683
16419
-23457
388.684
17145.1
-22811.1
474.645
17809.5
-22316.7
682.067
18390.3
-21883
936.774
18890.1
-21437.9
1124.01
19356.7
-21179.6
1127.31
-20842.6
801.133
2867.56
27.2908
387.45
2990.37
304.981
207.977
2519.38
-198.575
658.157
1768.81
-1454.94
1194.18
1052.17
-1512.51
1861.52
2277.51
-7895.58
2549.45
3359.65
-20161
2839.23
4008.46
-27852.5
2669.55
4826.57
-31130.8
1970.81
5972.2
-31648.2
781.462
7406.68
-30806.8
-461.89
8975.48
-29402.6
-1267.64
10494.9
-28110.2
-1524.41
11842.5
-27202.8
-1380
12980.6
-26578
-1111.9
13947.4
-25908
-967.602
14781
-24971.6
-975.661
15499.6
-23910.6
-990.161
16151.7
-23095.7
-893.081
16824.1
-22704.2
-669.363
17526.2
-22560.6
-357.156
18194.1
-22424.3
-37.021
18766.2
-22143.3
192.872
19269.2
-21850
194.531
-20998.8
-118.183
2907.04
36.9623
381.399
2921.09
484.826
166.541
2166.81
197.576
764.979
1046.29
-1044.13
1295.24
723.673
-2432.42
1748.16
2279.72
-11744
2418.91
3201.24
-23716.6
2730.8
3769.78
-30661.8
2292.58
4592.88
-32992.8
1078.47
5818.85
-32367.1
-469.888
7362.99
-30571.1
-1728.81
8990.45
-28609.7
-2363.46
10492.6
-27101.2
-2448.04
11789.8
-26198.5
-2231.82
12896.2
-25583.1
-2026.53
13841.1
-24764.4
-2006.89
14604.4
-23586.1
-2045.21
15178.6
-22432.3
-1923.13
15660.6
-21833.8
-1612.26
16192.7
-21872.7
-1227.52
16813.7
-22185.2
-857.788
17482
-22396.4
-570.459
18121.1
-22275.6
-409.005
18668.8
-21860.1
-480.015
-20497
-846.484
2939.64
-10.8169
369.938
2757.02
937.924
170.386
1613.9
954.749
803.872
52.4194
-171.972
1196.04
798.524
-4451.82
1528.5
2218.04
-15395.3
2353.88
2916.21
-26923.5
2605.07
3429.38
-32880
1778.82
4318.72
-33994.4
169.539
5720.57
-32377.4
-1332.55
7377.69
-29840.1
-2319.43
8994.04
-27445.1
-2711.4
10430.1
-25776.8
-2688.02
11691.4
-24808.3
-2570.09
12814.7
-24016.8
-2598.54
13759.5
-22904.1
-2713.63
14424.6
-21539.5
-2593.88
14816.4
-20547.9
-2136.99
15145.7
-20416
-1598.71
15609.8
-20977.2
-1210.55
16226.9
-21676.4
-977.094
16916.4
-22087.7
-869.017
17614.7
-21997.6
-881.715
18272
-21389.1
-1077.23
-19602.1
-1526.99
2954.05
-64.408
368.748
2636.14
1283.37
202.542
1486.04
1437.8
831.448
-480.723
1218.89
869.613
789.965
-7316.96
1683.57
2023.97
-19025.7
2450.71
2520.29
-29833.6
2408.36
3038.88
-34500.1
1089.14
4125.41
-34485.5
-621.294
5710.33
-32138.6
-1822.71
7384.26
-29051.6
-2439.2
8922.24
-26305.1
-2641.12
10296.3
-24416.7
-2685.9
11580.4
-23200.7
-2820.37
12775.2
-22109.5
-3015.23
13726
-20860.9
-2892.47
14254.5
-19737.7
-2188.02
14438.1
-19244.6
-1313.52
14628.5
-19547
-868.914
15071.5
-20321.6
-905.544
15749.2
-21055.9
-1115.38
16539.4
-21387.8
-1334.08
17370.9
-21155.7
-1558.21
18230.1
-20329.3
-1853.72
-18281
-2374.62
2901.24
-117.238
387.915
2247.36
2042.98
239.515
256.428
2918.64
861.285
-1427.25
2420.76
943.494
550.034
-11198.4
2067.57
1667.91
-22618.8
2557.63
2042.2
-32133.5
2002.42
2669.04
-35303.7
235.747
4017.94
-34461.6
-1315.55
5714.98
-31569.9
-2203.74
7348.07
-28093
-2524.81
8808.27
-25078.8
-2626.15
10170.6
-22938.7
-2777.22
11515.1
-21438.8
-3023.46
12754.2
-20238.9
-3008.48
13643.3
-19333.3
-2294.75
14005.2
-18846.3
-1100.6
14036
-18765.1
-322.944
14180.7
-19006.1
-490.124
14673.6
-19434.7
-1182.98
15443.1
-19809.3
-1834.21
16349.3
-19858.5
-2280.82
17318.5
-19426.5
-2588.72
18405.2
-18483.3
-2872.92
-16383.9
-3469.94
2917.19
-162.07
410.114
2432.89
2308.68
244.343
1001.34
3710.89
783.089
-68.7944
2335.67
1094.75
703.484
-14264.9
2317.3
1211.25
-25655.4
2477.56
1512.95
-33761.1
1267.93
2384.45
-35597
-669.631
3934.86
-34120.6
-1947.3
5670.7
-30786.2
-2535.39
7249.79
-27040
-2615.73
8682.05
-23849
-2626.52
10095.6
-21516.5
-2781.11
11487.4
-19906.3
-2836.73
12650.5
-18922.8
-2358.9
13340.2
-18500.6
-1368.04
13507.3
-18390.9
-427.655
13499.5
-18228.2
-301.721
13771.8
-17911.7
-1137.94
14442.3
-17652
-2235.35
15355.7
-17496
-3038.33
16374.9
-17237.7
-3491.25
17443.2
-16676.7
-3719.9
18737.6
-15824.7
-3906.58
-13997.7
-4471.9
2881.73
-283.476
440.412
2435.18
2925.08
204.126
1087.6
4643.63
660.829
585.054
2049.22
1286.5
650.006
-16757.4
2537.3
729.631
-27752.4
2103.83
1041.39
-34325.7
304.27
2185.57
-35226.9
-1449.34
3839.54
-33303.1
-2405.5
5564.2
-29691.9
-2735.69
7116.73
-25871.1
-2642.2
8602.65
-22685.8
-2578.9
10115.9
-20378
-2577.74
11521.6
-18910.9
-2298.36
12554.6
-18216.3
-1605.59
13020.6
-18051.1
-755.363
13030.3
-17907.1
-295.452
13099.5
-17230.8
-854.518
13619.5
-16113
-2101.49
14526.8
-15058.2
-3292.35
15574.4
-14321.4
-4036.5
16651.7
-13771.8
-4388.1
17745.6
-13148
-4520.4
19156.2
-12566.9
-4616.21
-11385.8
-5096.67
2960.03
-434.795
481.377
2850.68
2959.18
118.008
2105.88
5090.91
458.02
1438.75
1180.09
1552.63
526.362
-18628.5
2770.74
244.578
-29053.7
1534.99
708.584
-34317.3
-569.306
2043.82
-34674.2
-1978.58
3733.22
-32445.8
-2582.46
5448.35
-28701.4
-2678.07
7049.27
-24930
-2482.35
8674.88
-21856.3
-2376.19
10308.3
-19670.5
-2243.2
11700.1
-18345.6
-1821.46
12599.1
-17747.8
-1190.35
12903.4
-17493.7
-649.387
12886.9
-16981.5
-667.537
13118.8
-15687.3
-1522.1
13879.4
-13831.7
-2793.8
14972.1
-12046.4
-3876.38
16092.9
-10749.5
-4495.4
17158.6
-9946.41
-4739.61
18224.1
-9309.24
-4809.01
19594.5
-9019.1
-4876.73
-8810.27
-5275.1
2921.08
-677.884
538.646
2972.31
3471.82
-72.8012
2385.04
5711.09
370.145
1689.32
385.953
1936.7
173.839
-19930.4
2998.02
-235.533
-29417.7
860.048
508.773
-33722.3
-1230.81
1986.89
-33805.9
-2252.75
3723.94
-31553.3
-2479.26
5494.95
-27949.2
-2364.67
7225.38
-24366.9
-2154.68
9013.41
-21426.9
-2089.39
10722.9
-19272.3
-1975.34
12056.2
-17888.1
-1638.01
12828.2
-17108.3
-1228.88
13058
-16493.5
-1028.29
13162.5
-15395.4
-1480.9
13602.1
-13557
-2347
14484.9
-11289.9
-3203.22
15604.8
-9109.77
-3834.56
16708
-7426.83
-4220.53
17702.9
-6389.58
-4381.09
18743.1
-5803.23
-4437.51
19986.7
-5645.14
-4566.24
-6397.23
-4984.93
2866.43
-751.475
578.37
3279.83
3513.29
-330.379
2965.38
5868.69
543.248
1683.93
-537.494
2341.16
-383.72
-20916.6
3125.76
-654.547
-29221
96.323
399.567
-33042.7
-1790.05
2041.74
-33032.5
-2430.02
3889.93
-31044.5
-2332.61
5794.99
-27697.2
-2054.27
7673.66
-24253.4
-1867.72
9551.66
-21307.9
-1878
11238.6
-18996.9
-1841.4
12469.8
-17424.6
-1525.41
13166
-16311.4
-1286.3
13480.2
-15157.6
-1408.83
13800.7
-13490.4
-1959.61
14398.4
-11298.1
-2587.03
15277.3
-8914.34
-2976.16
16282.4
-6756.38
-3089.05
17269.9
-5070.34
-3092.4
18135.8
-3965.58
-3096.77
19064
-3411.77
-3193.77
20245.1
-3316.89
-3453.96
-4357.74
-4107.84
2716.03
-869.735
615.694
3329.04
4283.76
-437.451
3119.08
5874.25
668.516
1442.78
-1095.62
2763.49
-1092.07
-21235.6
3091.31
-1026.95
-28473.7
-625.858
344.878
-31871.7
-2375.07
2161.27
-31965.2
-2684.42
4171.77
-30445.6
-2370.86
6221.29
-27479.3
-2022.19
8189.22
-24169.6
-1848.78
10070.4
-21137.7
-1857.16
11650.2
-18808.3
-1588.26
12781.2
-17125.5
-1230.86
13473.4
-15703.1
-1097.31
13911
-14083.4
-1293.74
14368.2
-12081.7
-1648.54
15020.9
-9807.91
-1922.42
15867.2
-7543.24
-1995
16804.6
-5569.5
-1888.86
17710
-4010.14
-1742.81
18523.4
-2911.31
-1679.26
19287.8
-2286.58
-1775.57
20284.3
-2109.05
-2153.81
-2843.51
-2967.87
2788.07
-796.344
653.539
3466.54
4480.41
-322.034
3384.99
5607.04
861.722
899.799
-1650.17
3265.82
-1850.56
-21089.2
2788.59
-1364.5
-27436.4
-1458.47
259.68
-30416.8
-3057.01
2207.72
-30830.3
-3084.08
4357.47
-29855.2
-2675.92
6537.63
-27244.8
-2299.7
8582.01
-24030.3
-2077.54
10408.5
-21077
-1814.39
11872.3
-18880.7
-1331.11
12935.7
-17112.4
-968.952
13635.5
-15429.9
-814.011
14131.9
-13512.2
-846.737
14613.4
-11369.2
-948.103
15229.9
-9144.57
-1004.95
16017.1
-7068.64
-978.602
16914.3
-5295.68
-864.386
17792.1
-3871.7
-727.583
18603.1
-2809.67
-665.098
19335.8
-2095.9
-757.362
20240.6
-1816.44
-1111.41
-1991.79
-2251.9
2876.64
-910.864
577.9
3562.95
5358.75
-109.507
3626.52
5077.84
986.974
333.411
-1690.3
3822.76
-2561.75
-20004.3
2089.28
-1715.68
-25619.1
-2457.18
61.4567
-28232.2
-3796.54
2083.66
-29051.3
-3583.51
4327.72
-28760
-3139.03
6649.93
-26583.4
-2773.05
8786.17
-23466.4
-2521.96
10534.6
-20851.3
-1839.32
11916.7
-18745.8
-1399.35
12944.4
-16916.9
-1075.44
13678.2
-15150.7
-839.301
14252.5
-13203.7
-679.993
14766.2
-11102.4
-568.659
15320.9
-9024.45
-469.647
15967.2
-7117.83
-376.54
16722.3
-5538.44
-290.471
17546.9
-4267.9
-199.802
18372.7
-3294.07
-153.792
19117.8
-2492.81
-220.112
19942.6
-2041.98
-542.618
-1757.61
-1735.73
3175.3
-900.095
453.694
4064.93
5711.52
183.377
4132.6
4511.73
1102.52
-155.806
-1356.11
4382.19
-3257.65
-17879.6
1329.12
-2155.98
-22927.8
-3532.52
-259.325
-25268.4
-4550.25
1798.03
-26634.1
-4182.91
4122.55
-27062
-3705.67
6601.26
-25367.3
-3394.93
8737.05
-22452.3
-2953.99
10409.4
-20026.8
-2384.34
11746.3
-17851
-2175.21
12775.8
-15941
-1913.31
13555.4
-14201.3
-1603.37
14207.3
-12389.3
-1289.15
14795.4
-10511.1
-1008.33
15405.9
-8682.67
-754.612
16058.1
-7041.09
-541.597
16776.2
-5668.33
-366.126
17507
-4565.5
-227.792
18238.5
-3683.49
-147.738
18943.1
-2900.32
-162.96
19716.9
-2347.72
-386.127
-1663.62
-1457.01
3396.2
-1070.81
288.362
5074.27
5992.67
394.567
4870.87
4295.75
1209.19
-338.662
-151.68
4835.82
-3938.08
-14446.5
578.39
-2694.02
-19314.5
-4560.47
-690.351
-21540.5
-5395.47
1448.85
-23627.3
-4940.63
3845.1
-24804.3
-4430.16
6435.27
-23480.6
-4307.81
8445.26
-20750.2
-3621.28
10021.5
-18131
-3434.53
11327.9
-15690
-3432.72
12411.9
-13678.5
-3249.89
13273.9
-12038.6
-2857.81
13970.7
-10492.9
-2383.66
14576.9
-8956.58
-1954.06
15187.1
-7496.43
-1583.98
15832.8
-6214.35
-1275.03
16538.6
-5148.76
-1014.43
17261.5
-4299.79
-796.671
17993.8
-3600.46
-638.186
18720.7
-2946.3
-558.663
19449
-2343.62
-663.584
-1216.11
-1376.32
3327.45
-791.263
156.947
6143.07
5010.31
666.608
5334.19
4661.05
1908.42
-38.0634
1596.58
5165.02
-4406.5
-9399
184.307
-3155.5
-14201.1
-5434.96
-1146.3
-16009.7
-6350.49
1052.53
-18838.3
-5693.5
3497.95
-21306.5
-4883.6
6111.25
-20316.6
-4876.18
7957.42
-17929.7
-3988.98
9410.21
-15130
-3997.01
10678.2
-12391
-4249.29
11822.3
-10279.6
-4284.57
12772.9
-8820.65
-3948.35
13540.8
-7707.67
-3403.94
14206.2
-6678.65
-2862.46
14866
-5739.57
-2402.82
15556.6
-4892.39
-2027.82
16296.1
-4201.32
-1716.09
17043.7
-3621.13
-1452.05
17802.3
-3134.41
-1252.24
18553.3
-2627.13
-1105.29
19254.9
-1949.06
-1126.15
-145.72
-1468.49
3256.75
-380.23
74.7644
6519.76
2549.93
1489.94
6720.75
4798.61
2118.17
1781.94
2233.32
6654.8
-4048.78
-2594.95
737.915
-3445.98
-7360.23
-5983.37
-1321.34
-8289.92
-7731.98
752.721
-11647.9
-7222.98
3117.09
-16330.2
-5786.79
5438.29
-15770.2
-5564.64
7026.2
-13795.2
-4764.48
8331.89
-10977.1
-4748.33
9567.51
-8187.78
-4951.32
10799.4
-6118.32
-4937.64
11880.7
-4965.26
-4570.88
12786.4
-4345.88
-3977.58
13571.5
-3965.09
-3370.96
14360.9
-3633.14
-2839.6
15163.8
-3342.08
-2407.57
16007.1
-3031.34
-2068.6
16828.1
-2746.13
-1794.24
17662.2
-2452.44
-1593.02
18492.7
-2075.99
-1469.41
19286
-1308.09
-1485.62
1221.58
-1729.99
3625.86
-219.041
25.6749
6270.23
562.584
1457.62
6642
3549.33
3481.35
1745.44
-156.77
9462.68
-3297.96
1352.85
3079.16
-4837.58
12.0803
-3842.12
-2240.48
-443.064
-7671.38
845.591
-2211.53
-8853.54
2293.19
-8968.06
-6090.24
3646.89
-9086.46
-5662.34
4693.32
-7346.13
-5558.48
5776.84
-4853.52
-5751.62
7089.39
-2614.69
-5789.6
8645.06
-1267.2
-5530.35
10228.9
-872.39
-5003.89
11667.2
-997.313
-4353.48
12911.7
-1247.34
-3747.32
14003.3
-1438.3
-3250.38
14948.9
-1519.83
-2850.5
15762.9
-1470.25
-2521.59
16441.4
-1355.92
-2247.74
17120.3
-1255.52
-2055.98
17930.8
-1050.58
-1999.59
19188.2
-523.272
-2148.17
2059.98
-2650.07
3180.06
92.6082
5571.65
-1074.49
7992.01
1791.15
-1023.1
9352.3
-7248.65
8079.92
-8390.64
1813.16
-5505.61
-2351.25
260.172
-6781.44
37.0554
-7717.8
-1115.25
-7066.97
-1633.89
-6140.57
-674.436
-5294.12
1630.52
-4514
4552.25
-3867.26
7347.54
-3435.19
9704.7
-3207.31
11549.2
-3014.74
12912.5
-2777.33
13906.2
-2524.35
14676.8
-2271.59
15284.1
-2005.08
15740.3
-1755.37
16264.1
-1610.93
17344.6
-1618.88
-2241.51
3162.64
268.179
189.028
3595.21
27.5801
447.425
3669.68
479.659
372.139
2884.42
356.972
1638.8
1720.59
-599.494
3448.85
467.47
-577.109
4203.41
-1232.8
-214.601
5067.06
-1050.11
-2793.65
6648.41
-19.6816
-4710.31
8198.73
1361.9
-6007.02
9347.29
3062.98
-6960.87
10194.3
4993.45
-7634.91
10714.5
6782.29
-7849.12
11169.8
8255.76
-7720.72
11462.8
9375.11
-7373.59
11448.4
10122.2
-6866.62
11183.2
10569
-6332.67
10797.9
10842.8
-5921.82
10391.3
11051.1
-5694.34
10037.9
11259.3
-5634.75
9773.85
11504.4
-5688.56
9550.37
11873.4
-5841.16
9267.58
12450.6
-6010.84
8753.36
13644.8
-6340.11
8043.59
-7580.96
6309.57
3552.49
119.599
174.897
4314.69
-335.471
391.829
5000.5
245.512
319.944
4842.47
445.163
1121.96
3672.4
-262.818
2266.11
2125.75
4.1187
3519.82
1725.68
-1010.02
4850.93
2788.19
-5460.31
6064.66
4600.85
-8736.25
7159.59
6614.12
-10830
7927.69
8625.39
-12221
8494.55
10498.2
-13129.1
9005.15
12105.8
-13413.9
9491.37
13355.9
-13178.8
9848.25
14237.8
-12652.3
10047.6
14866.3
-12033.8
10136.4
15408.2
-11510.1
10140.7
15975
-11179.7
10065.5
16574.3
-11031.6
9938.79
17162.5
-11011.6
9798.48
17697.8
-11056.5
9635.1
18185.8
-11161.7
9393.9
18727.1
-11287.6
8971.59
19564.9
-11655.9
8381.55
-12899.1
6817.69
3424.54
125.775
150.943
3849.36
-350.559
421.587
4503.7
-99.5548
516.844
5040.91
20.5522
975.338
4829.67
-268.106
1582.14
3696.97
931.428
2645.4
3873.08
-1727.31
3989.76
5207.01
-7534.03
4885.6
7138.18
-11644.3
5649.29
9233.34
-14200.2
6178.29
11235.8
-15763.4
6521.49
12859.8
-16520.6
6769.34
13968.2
-16502.9
6991.69
14662
-16045.2
7232.64
15185.7
-15536.4
7489.94
15764.2
-15185.4
7743.59
16498.7
-15034.4
7956.12
17366.7
-15038.1
8083.04
18283.1
-15115.6
8126.41
19163.4
-15210.7
8125.49
19951
-15271.5
8091.59
20629.6
-15305.6
7979.93
21258.9
-15316.1
7700.78
21938.5
-15540.6
7228.89
-16203.7
5766.85
3480.06
100.268
152.349
3751.97
-226.652
450.259
4231.47
-339.555
716.815
4676.75
-308.293
1001.41
4363.22
-220.401
1660.63
4056.21
982.042
2670.63
5140.15
-3016.44
3558.99
6782.12
-9227.46
3883.49
8838.65
-13641.4
4149.23
10928.6
-16297.7
4304.34
12583.1
-17539.2
4277.96
13538.7
-17686.2
4140.71
13927
-17162.7
4039.71
14126.9
-16587.7
4107.57
14481.8
-16373.4
4354.93
15125.7
-16538.8
4682.1
16015.5
-16892.5
4968.82
17030.2
-17264.8
5144.62
18063.1
-17567.9
5227.41
19057.4
-17783.1
5281.13
19980.3
-17875.2
5337.82
20799.3
-17846.7
5359.78
21519.6
-17736.5
5259.04
22125.5
-17746.2
4976.1
-17621.8
3830.7
3468.06
110.345
166.982
3794.26
-167.892
453.063
4150.08
-386.082
718.693
4365.55
-387.624
1016.16
4038.36
-224.939
1752.74
4547.89
204.524
2630.69
6102.6
-4513.97
3112
7991.82
-10711.7
3034.06
10089.7
-15036.4
2875.49
11778.1
-17170.7
2542.4
12667.9
-17521.8
1965.57
12876.4
-16878
1347.32
12829.3
-15997.7
958.734
12966.3
-15594.4
952.807
13482.8
-15909
1264.13
14309.5
-16681.1
1691.86
15276.1
-17522.3
2054.7
16234.4
-18201.3
2281
17123.6
-18683.8
2408.48
17970.2
-19007.2
2509.68
18798.7
-19137.8
2623.35
19576.9
-19042.6
2718.31
20261
-18790.5
2729.1
20749.6
-18534.8
2572.49
-17649.9
1734.74
3455.83
147.746
181.529
3809.17
-169.745
435.104
4058.33
-244.652
632.867
4116.07
-218.826
1107.66
3878.69
-155.006
1889.1
4915.94
-711.144
2638.44
6829.23
-6075.48
2801.71
8947.14
-12163.2
2478.95
10744.3
-15823.3
1874.16
11686.2
-16765.2
852.705
11870.3
-16022
-392.685
11806.4
-14897.3
-1374.23
11905
-14102.9
-1792.23
12381.9
-14166.3
-1649.3
13206.2
-15116.4
-1147.12
14176.8
-16486.2
-551.355
15090.6
-17744.8
-74.8678
15829.5
-18634
235.069
16404.4
-19216.9
449.907
16925.6
-19607.6
640.783
17474.9
-19757.4
827.558
18046.3
-19575.2
961.331
18557.4
-19145.6
1005.56
18869.9
-18571.7
870.897
-17075.2
132.695
3496.53
163.001
181.142
3799.7
-118.082
410.419
3898.83
90.0501
610.023
3769.98
262.453
1193.43
3746.82
174.399
1856.77
5281.4
-1790.2
2395.86
7528.68
-7787.13
2534.38
9575.66
-13475.3
2108.41
10738.3
-15818.1
921.319
11013.5
-15281.6
-887.726
11028.7
-13745.2
-2661.11
11236.1
-12523.9
-3744.57
11753.6
-12090.4
-3940.64
12567.7
-12790.6
-3452.35
13556.7
-14429.9
-2670.21
14501.2
-16276.2
-2011.11
15218.1
-17688.9
-1622.95
15657.7
-18561.6
-1367.13
15926.5
-19172.9
-1083.82
16181.6
-19684.1
-743.179
16504.8
-19942.6
-403.297
16915.4
-19780
-169.471
17307.3
-19232.3
-64.5268
17526.1
-18389.6
-192.361
-16418.1
-914.386
3562.45
131.871
160.327
3721.44
-11.8259
401.949
3707.58
566.841
625.436
3580.34
954.747
1066.59
4006.3
277.585
1518.08
5914.13
-3035.72
2048.13
8233.35
-9581.9
2417.2
9809.14
-14346.3
1749.17
10342.2
-15046.8
-110.47
10385.2
-13318
-2386.78
10570.1
-11234.1
-4337.99
11057.9
-10034.2
-5252.55
11807.5
-10122.2
-5074.44
12758.3
-11605.7
-4268.19
13723.6
-13793.2
-3526.54
14418
-15622
-3257.44
14700.4
-16679.6
-3220.82
14708.5
-17366.5
-2999.45
14760.7
-18194
-2515.47
15064.8
-19154.2
-1936.6
15597.4
-19784.2
-1426.55
16231.2
-19770
-1104.49
16787.9
-19164.7
-954.442
17144.3
-18095.8
-1081.5
-15726.5
-1694.62
3600.68
55.4994
146.21
3596.51
260.587
402.794
3490.42
1232.26
576.308
3377.08
1799.75
792.151
4384.89
-120.043
1226.96
6650.32
-4720.8
2042.33
8736.01
-11325.6
2499.42
9725.3
-14699.4
1339.76
10016.6
-14185.1
-829.746
10118.9
-11682.3
-2953.63
10375.9
-9119.45
-4581.02
10886.3
-8018.94
-5128.11
11627.4
-8652.37
-4787.5
12543.6
-10616.8
-4355.01
13334.9
-12647.5
-4418.75
13610.2
-13731.9
-4760.72
13308.1
-14166.3
-4673.1
12843.7
-14908.9
-3978.55
12763.2
-16404.2
-3156.62
13270
-18178.1
-2547.14
14194
-19372.8
-2174.18
15264.2
-19575.1
-2016.27
16217.2
-18932.4
-1980.24
16869
-17633.3
-2147.66
-14799.7
-2615.5
3617.6
-33.2875
143.885
3511.28
556.391
386.46
3390.43
1984.57
446.188
3368.88
2511.6
408.07
4882.77
-1003.52
1285.82
7296.13
-7028.32
2545.37
8906.39
-12976.2
2626.35
9586.39
-15086.3
939.808
10014.9
-14103.6
-1022.67
10224.8
-11284.9
-2346.91
10374.8
-8329.15
-3300.66
10711.1
-7033.3
-3884.04
11344.7
-7624.99
-4258.74
12183.8
-9239.15
-4929.99
12750.3
-10425.1
-5678.06
12535.9
-10720.1
-5540.12
11623.2
-11053.1
-4207.31
10795.5
-12348.5
-2834.89
10770.6
-14651.9
-2391.25
11606.1
-17137.6
-2589.94
12928.1
-18727.2
-2911.21
14377.5
-19019.3
-3194.64
15638.2
-18269.3
-3381.37
16559.7
-16758.5
-3594.28
-13463.6
-4036.55
3614.83
-139.813
160.729
3405.15
1074.5
348.786
3293.85
2998.64
254.874
3610.14
3167.76
244.798
5535.28
-2570.81
1949.14
7660.9
-9557.94
3211.81
8796.8
-14336.8
2471.58
9557.06
-15868.7
481.371
10236.4
-14777.4
-1150.7
10513
-11689.2
-1933.82
10445
-8228.87
-2428.19
10547.9
-6316.14
-3327.09
11064.2
-6220.11
-4581.99
11816.1
-7045.87
-5834.93
12236.6
-7767.95
-5921.75
11794.2
-8359.1
-4023.24
10651.6
-9295.75
-1469.03
9764.08
-10723.5
-807.15
9842.33
-12993.2
-1996.06
10820.9
-15633
-3462.99
12274.1
-17369.9
-4468.09
13854.1
-17705.2
-5032.61
15257.9
-16900.6
-5262.09
16377.7
-15354
-5342.88
-11836.2
-5766.88
3623.05
-239.489
189.655
3336.97
1619.04
281.122
3396.03
3891.75
44.9329
4362.58
3105.08
373.62
6319.07
-4711.76
2652.39
7711.65
-11629.4
3312.59
8598.92
-15566.7
1749.27
9636.44
-17195.3
-270.221
10553.5
-15993
-1565.04
10819.3
-12502.1
-1929.57
10507.9
-8408.79
-2071.84
10406.1
-5628.35
-3151.65
10821
-4596.38
-4732.07
11428.5
-4863.64
-5485.22
11623.9
-5888.2
-4229.72
11048.1
-7249.57
-1626.66
10057.6
-8315.66
-87.9208
9511.33
-8831.55
-1332.27
9801.98
-10437.6
-3716.03
10752.1
-12988.2
-5611.01
12060
-14881.3
-6658.99
13515.1
-15409.9
-7109.38
14911.1
-14793.3
-7141.74
16153.5
-13453.9
-7016.78
-10160
-7209.98
3593.31
-342.5
234.67
3230
2393.2
182.59
3616.15
4661.53
-114.929
5263.73
2223.31
749.307
6861.25
-6568.54
3025.15
7568.88
-12691.4
2696.39
8509.7
-16618.5
663.435
9739.86
-18551.8
-1134.71
10739.5
-17055.6
-2197.22
10953.5
-12986.5
-2332.68
10491.5
-8263.04
-2196.66
10287.4
-4744.17
-3129.04
10607.9
-3192.2
-4159.38
10965.2
-3448.77
-3874.98
10716.4
-4831.26
-2149.2
9698.09
-6458.14
-194.253
8818.46
-6753.13
-634.692
8957.56
-6245.67
-3266.73
9882.87
-7303.57
-5908.47
11005.3
-9628.61
-7566.57
12132.3
-11579.7
-8296.49
13325.4
-12362.5
-8497.32
14571.3
-12129.7
-8348.77
15844.1
-11191
-8110.59
-8540.12
-8103.82
3538.61
-354.059
279.246
3155.59
3139.12
51.9964
4003.44
4762.65
-203.657
6040.54
596.043
1302.59
7079.05
-7862.7
3167.46
7360.76
-13207.8
1913.23
8462.71
-17962.7
-209.303
9665.87
-19844.3
-1805.58
10560.9
-17651.7
-2796.17
10716.3
-12861.7
-2882.3
10254
-7610.72
-2603.13
10060.8
-3743.83
-3092.41
10277.4
-2218.78
-3288.28
10283.5
-2752.06
-2283.59
9452.07
-4254.63
-595.227
8034.4
-5043.8
-255.07
7346.15
-4149.58
-2187.59
8307.36
-3263.74
-5128.88
10141.8
-4001.4
-7656.82
11748.7
-5805.32
-9086.38
12867
-7501.57
-9515.16
13777.7
-8464.92
-9423.32
14704.4
-8704.58
-9089.68
15818.6
-8431.57
-8733.98
-6749.12
-8600
3428.09
-260.625
309.118
3354.88
3848.88
-149.809
4835.96
4234.63
-178.459
6442.27
-795.982
1974.03
6877.78
-8340.3
3284.21
7162.37
-13774.3
1402.46
8342.95
-19387.6
-772.603
9283.39
-20558.4
-2297.73
9921.73
-17408.7
-3208.76
10016.4
-11878.6
-3262.18
9702.51
-6240.27
-3003.22
9644.65
-2407.64
-3147.91
9749.65
-1197.74
-2850.44
9297.73
-1900.32
-1730.5
7888.05
-2723.8
-984.034
6446.93
-2082.35
-2196.43
6456.93
-431.258
-4881.65
8183.45
282.077
-7337.41
10537.1
-317.097
-8993.6
12501.4
-1542.86
-9841.58
13764.9
-2798.58
-10000.3
14588.3
-3775.73
-9749.96
15242.8
-4395.74
-9319.06
16099.8
-4926.86
-8895.24
-4475.87
-8694.81
3307.38
54.8691
316.28
3908.59
3817.1
-387.811
5720.84
3101.49
163.366
6506.29
-1735.77
2691.05
6421.4
-8461.02
3521.2
7024.75
-15113.6
1004.12
8040.4
-20706.2
-1340.05
8574.44
-20612.6
-2808.21
8955.44
-16397.8
-3544.22
9020.44
-10323.4
-3489.62
8911.8
-4546.32
-3277.81
9079.2
-864.75
-3360.32
9098.32
220.116
-3014.46
8227.95
42.1378
-2266.83
6784.71
349.719
-2572.64
6158.83
1876.58
-4402.93
7093.97
3657.68
-6693.12
9040.59
4380.21
-8357.7
11059.6
3987.11
-9058.65
12674.7
3050.54
-9053.88
13789
1939.49
-8738.38
14580.2
891.182
-8383.74
15201
2.6344
-8117.87
15965.6
-1175.29
-7938.15
-1956.95
-7978.68
3262.05
462.912
299.034
4817.66
3063.89
-626.293
6197.2
2255.45
582.27
6204.79
-2176.39
3493.08
5861.12
-8410.36
3712.85
6835.55
-16734.6
301.185
7542.82
-21268.1
-2295.15
7720.89
-19697
-3531.55
7992.89
-14716.9
-4064.08
8074.74
-8322.11
-3738.29
8107.97
-2488.15
-3505.48
8583.21
1038.7
-3801.67
8717.54
2313.99
-3464.7
8046.38
2892.23
-3080.66
7226.87
4033.51
-3665.1
7233.26
5827.25
-4980.54
8304.38
7430.25
-6253.46
9930.3
8132.95
-7090.81
11536.4
7946.15
-7356.38
12811.5
7186.15
-7102.49
13695.3
6129.67
-6626.16
14310.4
4994.69
-6248.88
14804.2
3899.95
-6079.09
15383
2333.86
-6213.11
497.212
-6623.76
3641.14
605.708
256.51
6062.86
1453.54
-609.123
6406.29
2115.04
1065.92
5559.85
-2304.15
4538.12
5490.3
-8754.79
3462.77
6577.91
-18123.1
-948.327
6907.8
-20883.7
-3619.08
6853.52
-18056.4
-4474.54
7208.89
-12668.1
-4813.87
7314.58
-6274.83
-4135.16
7487.42
-581.435
-3835.34
8332.41
2761.53
-4124
8822.89
4489.37
-3802.93
8707.49
5766.28
-3520.01
8566.09
7307.78
-3724.58
8970.02
9007.72
-4197.28
9915.34
10392.3
-4627.5
11109.7
11064.4
-4914.22
12254.9
11028
-4988.42
13184.9
10422.2
-4812.29
13841.7
9434.4
-4473.34
14254.4
8295.46
-4197.86
14509.2
7106.71
-4097.06
14693.8
5446.07
-4346.03
2847.97
-5309.03
4169.13
275.66
135.762
6843.13
-468.502
-318.119
6125.56
2590.8
1830.49
4516.69
-2237.87
5755.93
5202.34
-9346.34
2406.2
6132.59
-18529.4
-2732.26
6119.05
-19286.1
-5089.92
5931.62
-15599.7
-5552.79
6399.25
-10151.5
-5690.21
6501.42
-3882.73
-4688.68
6967.67
1305.37
-4294.94
8148.94
4400.92
-4271.65
9017.72
6560.3
-4083.99
9417.83
8239.24
-3710.06
9765.97
9758.42
-3419.25
10401.2
11160.2
-3242.88
11297.6
12270.2
-3149.68
12300.5
12892.5
-3107.31
13229.6
12950.4
-3056.17
13968.2
12509.9
-2924.57
14423.3
11667.1
-2713.49
14625.1
10635.2
-2534.09
14622.3
9470.25
-2482.44
14339.2
7937.34
-2705.9
5252.6
-4105.73
4685.92
-487.272
-52.4318
6797.76
-2201.48
397.554
5294.8
2829.17
3035.47
3092.53
-2078.87
6959.1
4570.17
-10108
909.119
5397.63
-17880.4
-4784.99
5113.41
-16754.1
-6594.19
4855.24
-12545.8
-6731.52
5351.3
-7557.19
-6469.63
5520.05
-1814.05
-5254.38
6246.87
2474.94
-4551.95
7557.99
5441.79
-4592.73
8706.55
7779.21
-4447.17
9543.78
9488.77
-3878.18
10275.9
10775.8
-3184.48
11079.1
11849.8
-2588.03
11982.7
12745.5
-2185.82
12935.4
13333.1
-1949.23
13839.6
13491.1
-1783.92
14605.4
13207.6
-1627.11
15141.7
12558.8
-1455.86
15426.4
11696.9
-1321.65
15427.7
10705.2
-1272.64
14887.8
9539.73
-1368.86
7506.01
-3028.98
4540.34
-1165.81
-146.465
4929.07
-3152.61
1629.82
3559.35
1254.36
4862.67
1756.93
-2508.37
7714.15
3589.52
-10002.7
-950.372
4297.72
-16074.1
-6737.36
3871.3
-13286.5
-8065.67
3557.05
-8737.86
-7930.35
3970.64
-4757.24
-7022.87
4291.67
98.9757
-5776.32
5297.62
3254.09
-4857.68
6815.18
5815.78
-4996.37
8297.61
7849.03
-4767.98
9507.52
9224.63
-3989.01
10522.9
10054
-2942.91
11479.5
10687
-1975.98
12451
11329.9
-1333.32
13445.9
11892
-977.701
14401.6
12162.9
-759.054
15257.5
12056.8
-576.796
15930.7
11623.8
-403.318
16405
10991.1
-291.881
16589.2
10308
-269.866
16132.2
9709.35
-341.141
8935.96
-1966.51
3243.57
-804.373
-0.395138
497.671
-2637.89
3515.96
-648.394
-2492.27
7332.14
111.868
-5235.8
7749.61
2080.9
-8991.99
-2545.15
2726.64
-13600.5
-8494.51
2403.96
-9770.99
-9584.79
2126.92
-5120.7
-9274.57
2587.85
-2572.08
-7677.91
3366.61
718.316
-6446.9
4838.2
2785.04
-5228.4
6601.55
5017.15
-5186.39
8289.48
6741.47
-4968.51
9699.22
7766.03
-4203.8
10813.6
8152.39
-2994.5
11745.9
8319.44
-1706.17
12637.9
8619.7
-744.459
13573.8
9041.1
-163.135
14521.5
9345.86
154.37
15435.5
9378.31
365.066
16227.9
9132.97
529.342
16870.8
8720.9
628.669
17296.3
8304.47
655.927
17257.5
8225.98
518.872
8790.38
-892.32
1778.52
619.683
370.314
-3334.63
-999.779
5835.45
-6310.5
-6055.61
9197.12
-3573.22
-8926.28
8202.4
-286.685
-8210.41
-2851.79
558.714
-10236.7
-9791.08
627.501
-6256.97
-10834.4
386.262
-1241.06
-10140.3
885.96
228.396
-8140.49
2005.12
1673.32
-6630.84
3476.97
2706.6
-5469.03
5267.17
4313.99
-5381.22
7118.9
5512.15
-5197.63
8805.75
6076.19
-4524.46
10172.6
6054.05
-3399.9
11239.5
5774.16
-2085.65
12126.6
5643.69
-927.532
12972
5713.04
-68.1087
13835.4
5798.17
506.729
14726.1
5764.77
844.1
15558.2
5589.29
1067.52
16282.3
5333.83
1182.92