/*--------------------------------*- C++ -*----------------------------------*\
  =========                 |
  \\      /  F ield         | OpenFOAM: The Open Source CFD Toolbox
   \\    /   O peration     | Website:  https://openfoam.org
    \\  /    A nd           | Version:  11
     \\/     M anipulation  |
\*---------------------------------------------------------------------------*/
FoamFile
{
    format      ascii;
    class       volVectorField;
    location    "45";
    object      U;
}
// * * * * * * * * * * * * * * * * * * * * * * * * * * * * * * * * * * * * * //

dimensions      [0 1 -1 0 0 0 0];

internalField   nonuniform List<vector> 
17196
(
(0.948147 0.0213908 0.0432192)
(0.844027 0.00162917 0.101287)
(0.954055 0.0398761 0.125793)
(1.09917 0.0509584 0.143748)
(0.678402 0.0428116 0.207604)
(0.342787 -0.176754 0.288889)
(-0.272993 -0.418183 0.483825)
(-0.421453 -0.628672 0.649787)
(-0.428903 -0.595087 0.670283)
(-0.29528 -0.590365 0.677157)
(-0.00826806 -0.623058 0.718706)
(0.347075 -0.624669 0.763736)
(0.711503 -0.519933 0.796083)
(0.938235 -0.348875 0.81446)
(1.08742 -0.201915 0.818942)
(1.16899 -0.119374 0.791891)
(1.21012 -0.0842328 0.747408)
(1.26651 -0.082171 0.704097)
(1.35422 -0.104037 0.663961)
(1.46666 -0.135052 0.624356)
(1.60554 -0.16392 0.578618)
(1.75459 -0.186515 0.522256)
(2.01324 -0.210109 0.437281)
(2.11833 -0.212112 0.357424)
(3.00876 -0.349417 0.206875)
(1.00293 0.0266907 0.039979)
(1.04028 -0.0338061 0.0809964)
(1.19058 0.0516539 0.131606)
(1.24662 0.0119824 0.22006)
(0.893018 -0.0685834 0.30011)
(0.386862 0.0176186 0.420789)
(-0.0354066 -0.201771 0.611988)
(0.106659 -0.961932 0.782604)
(0.283365 -1.24928 0.844453)
(0.626327 -1.4781 0.870316)
(0.971958 -1.6307 0.879121)
(1.29468 -1.64458 0.905674)
(1.60882 -1.5751 0.953649)
(1.90352 -1.46327 0.997818)
(2.14244 -1.35583 1.00755)
(2.31327 -1.26952 0.984979)
(2.44622 -1.20226 0.948433)
(2.58022 -1.15437 0.911477)
(2.72275 -1.12248 0.876662)
(2.85976 -1.09728 0.84167)
(2.98117 -1.06864 0.802934)
(3.07654 -1.02952 0.759569)
(3.20786 -0.987571 0.704205)
(3.2945 -0.962983 0.646583)
(3.85637 -1.11675 0.540195)
(0.983435 0.0101928 0.0363207)
(0.959285 -0.0708866 0.072292)
(1.04347 -0.0358589 0.125709)
(1.10163 -0.0615076 0.266127)
(1.03025 -0.107635 0.381574)
(0.591729 0.0437779 0.544435)
(0.244022 -0.604997 0.67807)
(0.569063 -1.71539 0.770576)
(0.838104 -2.15254 0.815759)
(1.14809 -2.34354 0.817343)
(1.47411 -2.47606 0.810184)
(1.8322 -2.53293 0.827299)
(2.21575 -2.50621 0.862401)
(2.58576 -2.42071 0.901763)
(2.90228 -2.31914 0.925839)
(3.15535 -2.22761 0.930273)
(3.37081 -2.15173 0.924709)
(3.57547 -2.08868 0.916748)
(3.77023 -2.03108 0.908384)
(3.94221 -1.97351 0.899705)
(4.08118 -1.90712 0.889586)
(4.18053 -1.82968 0.87655)
(4.2897 -1.74891 0.851774)
(4.37884 -1.71453 0.813129)
(4.76711 -1.85959 0.698685)
(0.981095 -0.00164825 0.0438129)
(0.950283 -0.0443716 0.0702145)
(0.966718 -0.0733176 0.139292)
(1.12737 -0.153439 0.293194)
(1.12517 -0.162508 0.387328)
(0.681135 0.191189 0.502278)
(0.466278 -1.09345 0.672092)
(0.861085 -2.36365 0.731608)
(1.14148 -2.89164 0.741161)
(1.44815 -3.14204 0.702756)
(1.80867 -3.31406 0.651104)
(2.21652 -3.38498 0.62746)
(2.64885 -3.35561 0.63722)
(3.06362 -3.26167 0.669211)
(3.42143 -3.15379 0.703966)
(3.71917 -3.05786 0.731193)
(3.98467 -2.97493 0.751472)
(4.23926 -2.89527 0.769067)
(4.4792 -2.81288 0.787004)
(4.6899 -2.72702 0.807979)
(4.86105 -2.63396 0.831849)
(4.98897 -2.53332 0.853525)
(5.109 -2.43313 0.859201)
(5.21897 -2.39049 0.83975)
(5.48127 -2.49003 0.734076)
(0.963648 -0.00815734 0.0511842)
(0.939283 -0.0155417 0.0666303)
(0.958642 -0.0998419 0.16256)
(1.12754 -0.235421 0.321977)
(1.02478 -0.161052 0.379614)
(0.540287 -0.104458 0.501523)
(0.659741 -1.67896 0.655935)
(1.04604 -3.00427 0.674368)
(1.31753 -3.5926 0.636375)
(1.63462 -3.87481 0.533249)
(2.01406 -4.03022 0.418708)
(2.44651 -4.05651 0.350924)
(2.90233 -3.98825 0.343854)
(3.33609 -3.87616 0.381545)
(3.7144 -3.76711 0.434222)
(4.03839 -3.67417 0.480347)
(4.33362 -3.58507 0.516191)
(4.61667 -3.48499 0.54722)
(4.88181 -3.37651 0.581746)
(5.11752 -3.26851 0.625232)
(5.31612 -3.16134 0.677339)
(5.47574 -3.05513 0.72813)
(5.61784 -2.9554 0.75862)
(5.75745 -2.91001 0.756846)
(5.94022 -2.94851 0.669112)
(0.942367 -0.00558391 0.0558223)
(0.91707 0.00408102 0.0614267)
(0.93064 -0.08365 0.185003)
(1.01556 -0.278364 0.352705)
(0.80425 -0.260535 0.397807)
(0.450235 -0.516747 0.585085)
(0.781889 -2.28534 0.644061)
(1.12256 -3.59466 0.61885)
(1.37722 -4.1991 0.511351)
(1.70184 -4.46092 0.332267)
(2.09807 -4.54422 0.161439)
(2.5442 -4.48204 0.0720556)
(3.01456 -4.35546 0.0703267)
(3.46238 -4.22736 0.123512)
(3.85349 -4.12267 0.191564)
(4.18861 -4.03044 0.247471)
(4.48814 -3.92477 0.289189)
(4.76474 -3.79742 0.327122)
(5.01938 -3.66736 0.372817)
(5.25411 -3.55484 0.431707)
(5.46753 -3.45634 0.502207)
(5.6545 -3.3661 0.570467)
(5.82108 -3.2832 0.611256)
(5.99138 -3.23887 0.614504)
(6.13067 -3.219 0.533552)
(0.931234 0.000752979 0.058527)
(0.90851 0.0309421 0.0569453)
(0.90183 -0.054235 0.201174)
(0.849399 -0.243222 0.38233)
(0.31306 -0.339705 0.500069)
(0.460436 -0.951916 0.581547)
(0.812265 -2.86301 0.625114)
(1.10399 -4.11731 0.558752)
(1.35385 -4.68909 0.37201)
(1.68752 -4.85573 0.130945)
(2.09735 -4.80162 -0.0600631)
(2.55978 -4.62055 -0.138736)
(3.04409 -4.43814 -0.124165)
(3.49769 -4.30465 -0.0599171)
(3.88924 -4.21124 0.0124705)
(4.22027 -4.11497 0.0685991)
(4.50294 -3.98172 0.113823)
(4.74356 -3.82322 0.164453)
(4.95267 -3.68618 0.226681)
(5.15538 -3.60001 0.296896)
(5.36674 -3.54724 0.370956)
(5.57795 -3.50167 0.435985)
(5.7711 -3.44446 0.464128)
(5.96622 -3.40277 0.450066)
(6.09352 -3.31075 0.356277)
(0.93074 0.0057782 0.056154)
(0.91507 0.0649672 0.0557053)
(0.862342 -0.00256553 0.255019)
(0.603399 -0.201757 0.428084)
(0.112436 -0.141148 0.448349)
(0.503354 -1.48229 0.561907)
(0.780655 -3.41072 0.598368)
(1.02846 -4.57462 0.478534)
(1.27847 -5.03714 0.23172)
(1.63151 -5.02619 -0.0276027)
(2.06856 -4.80122 -0.199322)
(2.55722 -4.54091 -0.249114)
(3.04694 -4.329 -0.217123)
(3.48682 -4.19373 -0.149521)
(3.86618 -4.10207 -0.0817669)
(4.19448 -3.98818 -0.0294923)
(4.4653 -3.82052 0.0255355)
(4.66927 -3.64183 0.102566)
(4.82567 -3.52543 0.192038)
(4.97794 -3.49398 0.269906)
(5.1528 -3.50581 0.325609)
(5.34554 -3.51232 0.351922)
(5.55852 -3.48287 0.336549)
(5.77243 -3.43356 0.286919)
(5.92256 -3.25525 0.155067)
(0.937169 0.00254749 0.0521616)
(0.913741 0.114778 0.0602387)
(0.750836 0.0964101 0.286928)
(0.154045 -0.212623 0.413025)
(0.174655 -0.40775 0.39867)
(0.509284 -2.07733 0.563848)
(0.700004 -3.93893 0.559229)
(0.92421 -4.96786 0.389092)
(1.18411 -5.24237 0.120837)
(1.57827 -5.04414 -0.113903)
(2.05969 -4.71069 -0.246502)
(2.5611 -4.38181 -0.268881)
(3.03501 -4.14323 -0.224881)
(3.45829 -4.00182 -0.157488)
(3.8392 -3.88998 -0.0944868)
(4.17642 -3.73001 -0.0352458)
(4.43101 -3.51965 0.0503287)
(4.58439 -3.34546 0.164922)
(4.68435 -3.28989 0.269168)
(4.80347 -3.34416 0.32708)
(4.96855 -3.43174 0.336431)
(5.16243 -3.48757 0.301737)
(5.39088 -3.47427 0.222449)
(5.61717 -3.3953 0.129358)
(5.85843 -3.14536 -0.0413246)
(0.947713 -0.00403844 0.0485055)
(0.900097 0.17096 0.0775448)
(0.637752 0.19334 0.314295)
(0.104445 0.208421 0.213506)
(0.134712 -0.769041 0.482118)
(0.459189 -2.65932 0.569537)
(0.577195 -4.43537 0.509949)
(0.803847 -5.2795 0.313059)
(1.10046 -5.33897 0.0622868)
(1.55358 -5.02712 -0.133948)
(2.0633 -4.59037 -0.232319)
(2.54884 -4.19185 -0.23622)
(2.99712 -3.91769 -0.184969)
(3.41726 -3.74729 -0.116117)
(3.81938 -3.59347 -0.0432553)
(4.17199 -3.39741 0.0551219)
(4.40332 -3.19476 0.197293)
(4.49815 -3.08089 0.336021)
(4.54149 -3.10585 0.403884)
(4.63559 -3.22432 0.382353)
(4.80647 -3.34876 0.303371)
(5.02378 -3.41698 0.193247)
(5.29576 -3.3983 0.0577379)
(5.55506 -3.28504 -0.0590584)
(5.93368 -2.97722 -0.26402)
(0.958234 -0.0151601 0.0506182)
(0.855597 0.274027 0.0987806)
(0.294982 0.347401 0.330187)
(-0.197905 0.347912 0.20906)
(-0.0104243 -1.49638 0.680729)
(0.336173 -3.24666 0.55796)
(0.423486 -4.85617 0.456443)
(0.684421 -5.46971 0.260016)
(1.03692 -5.38518 0.0477046)
(1.54437 -4.97448 -0.108222)
(2.06113 -4.45887 -0.176452)
(2.52238 -4.00362 -0.165444)
(2.95489 -3.68272 -0.105246)
(3.38782 -3.46394 -0.0234705)
(3.80958 -3.27899 0.0825652)
(4.1572 -3.11022 0.231335)
(4.35124 -2.99325 0.393062)
(4.3959 -2.96261 0.485018)
(4.40867 -3.01848 0.457795)
(4.5033 -3.12092 0.32781)
(4.69444 -3.21191 0.158212)
(4.94139 -3.24361 -0.0113086)
(5.25987 -3.19259 -0.174913)
(5.55421 -3.05224 -0.295489)
(6.09243 -2.7224 -0.514628)
(0.966808 -0.0193108 0.051452)
(0.846564 0.327577 0.121128)
(0.404238 0.497599 0.31451)
(0.385727 0.454689 0.310649)
(0.132482 -1.94296 0.726227)
(0.175477 -3.77956 0.512654)
(0.256248 -5.18045 0.39432)
(0.581599 -5.54837 0.222624)
(0.990599 -5.36673 0.0660032)
(1.52941 -4.88059 -0.0412731)
(2.03922 -4.3106 -0.0779889)
(2.48453 -3.81616 -0.0516605)
(2.92204 -3.45567 0.019529)
(3.37484 -3.20523 0.122455)
(3.79334 -3.03637 0.25896)
(4.09353 -2.94432 0.407131)
(4.22074 -2.91306 0.506026)
(4.22754 -2.90481 0.500904)
(4.25923 -2.9015 0.372756)
(4.40616 -2.91349 0.156628)
(4.64742 -2.9284 -0.0655639)
(4.93174 -2.90843 -0.255611)
(5.28725 -2.82644 -0.411462)
(5.60359 -2.68209 -0.522513)
(6.29594 -2.37694 -0.737678)
(0.982331 -0.0361158 0.058555)
(0.80111 0.428766 0.12964)
(0.385355 0.677228 0.286398)
(0.735919 0.37185 0.395455)
(0.086873 -2.43389 0.72754)
(0.0115879 -4.21184 0.43313)
(0.112804 -5.36663 0.324713)
(0.503175 -5.55729 0.207972)
(0.954987 -5.29079 0.120699)
(1.50043 -4.74374 0.0662835)
(1.99912 -4.14433 0.0572882)
(2.4492 -3.63651 0.091711)
(2.91338 -3.26807 0.166881)
(3.38637 -3.02893 0.272255)
(3.78777 -2.90491 0.385503)
(4.03025 -2.86786 0.470055)
(4.09027 -2.853 0.488445)
(4.07945 -2.78259 0.412354)
(4.16967 -2.66091 0.227108)
(4.40109 -2.55293 -0.0205138)
(4.70167 -2.48247 -0.24471)
(5.01374 -2.41878 -0.420756)
(5.3799 -2.32598 -0.554171)
(5.70012 -2.20839 -0.652454)
(6.49921 -1.97162 -0.85868)
(0.991278 -0.0542938 0.068422)
(0.824988 0.440085 0.146661)
(0.698483 0.740523 0.244484)
(1.22284 0.263205 0.472663)
(-0.0367117 -2.77943 0.727882)
(-0.126675 -4.50739 0.345464)
(0.00562448 -5.40934 0.264413)
(0.452379 -5.49894 0.22569)
(0.924924 -5.16614 0.215622)
(1.46508 -4.58033 0.210042)
(1.96568 -3.97793 0.210684)
(2.44894 -3.4842 0.226984)
(2.95744 -3.13528 0.271162)
(3.44769 -2.92364 0.329275)
(3.82535 -2.82805 0.373555)
(4.01971 -2.79591 0.389361)
(4.04531 -2.73693 0.370613)
(4.05294 -2.56794 0.28503)
(4.21086 -2.32313 0.116392)
(4.51546 -2.09679 -0.0928383)
(4.85963 -1.94023 -0.274326)
(5.18106 -1.83772 -0.415867)
(5.53105 -1.74672 -0.527149)
(5.83815 -1.68602 -0.62353)
(6.6682 -1.55522 -0.828444)
(1.00303 -0.09281 0.0905184)
(0.786719 0.511902 0.135295)
(0.86696 0.891543 0.194014)
(1.40503 0.103461 0.562238)
(-0.290717 -3.07385 0.732757)
(-0.242441 -4.65308 0.258115)
(-0.0761253 -5.36314 0.223742)
(0.431677 -5.38567 0.276198)
(0.920485 -5.0167 0.34112)
(1.46901 -4.42712 0.365957)
(1.99745 -3.84632 0.341965)
(2.53169 -3.3794 0.297831)
(3.08068 -3.04676 0.266061)
(3.5715 -2.83863 0.246474)
(3.91736 -2.73039 0.231331)
(4.0765 -2.65409 0.222918)
(4.10874 -2.51107 0.213608)
(4.17407 -2.25462 0.174829)
(4.38318 -1.93215 0.0973342)
(4.70875 -1.62526 -0.00589225)
(5.05585 -1.39548 -0.108603)
(5.37068 -1.25771 -0.205687)
(5.69087 -1.16109 -0.305096)
(5.97825 -1.15584 -0.403669)
(6.76834 -1.19883 -0.634332)
(0.988804 -0.112905 0.101988)
(0.756642 0.546005 0.115425)
(1.24664 0.896319 0.191319)
(1.41642 -0.0495318 0.626597)
(-0.577819 -3.26965 0.718745)
(-0.340152 -4.6513 0.176411)
(-0.140429 -5.2611 0.196377)
(0.43723 -5.24632 0.338589)
(0.958017 -4.89327 0.460401)
(1.54274 -4.33683 0.490237)
(2.11754 -3.78513 0.416767)
(2.69274 -3.32832 0.292467)
(3.25136 -2.97938 0.178262)
(3.71742 -2.74606 0.0997511)
(4.02965 -2.59553 0.0599599)
(4.18713 -2.45594 0.0566183)
(4.27443 -2.24319 0.0843119)
(4.40755 -1.93403 0.131479)
(4.63796 -1.57188 0.182214)
(4.93834 -1.22948 0.213059)
(5.24484 -0.961618 0.208758)
(5.52974 -0.794661 0.16473)
(5.81379 -0.705199 0.0690969)
(6.04759 -0.674007 -0.0382587)
(6.77694 -0.878333 -0.295903)
(0.96509 -0.130127 0.108045)
(0.688946 0.62939 0.0982871)
(1.48069 0.94243 0.215298)
(1.27068 -0.147983 0.668322)
(-0.851685 -3.36806 0.685178)
(-0.448862 -4.54758 0.10863)
(-0.193478 -5.10028 0.166159)
(0.453811 -5.08988 0.391645)
(1.0226 -4.80308 0.553658)
(1.65853 -4.3047 0.576805)
(2.27319 -3.77278 0.460809)
(2.86299 -3.29788 0.277248)
(3.40093 -2.92783 0.110803)
(3.828 -2.66979 -0.000133492)
(4.12054 -2.47113 -0.0576151)
(4.2964 -2.26128 -0.0657782)
(4.43071 -1.98453 -0.0192913)
(4.59708 -1.64308 0.0817788)
(4.82956 -1.28155 0.2138)
(5.11166 -0.955749 0.337762)
(5.39639 -0.698584 0.413689)
(5.65303 -0.521879 0.423662)
(5.92571 -0.436245 0.357749)
(6.09494 -0.397472 0.226881)
(6.6715 -0.536799 -0.0173132)
(0.955734 -0.127411 0.113044)
(0.661749 0.658641 0.0859076)
(1.77842 0.877689 0.283919)
(1.01285 -0.268225 0.710977)
(-1.08662 -3.36884 0.633367)
(-0.564287 -4.39384 0.0178216)
(-0.252401 -4.8872 0.123121)
(0.446203 -4.91905 0.439176)
(1.05907 -4.71762 0.64587)
(1.74305 -4.27608 0.674672)
(2.39313 -3.75987 0.539052)
(2.9863 -3.28113 0.316476)
(3.49287 -2.92499 0.109575)
(3.88463 -2.65738 -0.0419164)
(4.16773 -2.41668 -0.140589)
(4.35221 -2.13844 -0.185107)
(4.50168 -1.8159 -0.172728)
(4.6673 -1.46593 -0.103315)
(4.88314 -1.12751 0.00892037)
(5.15038 -0.83394 0.142747)
(5.42674 -0.594865 0.260189)
(5.67914 -0.416117 0.330615)
(5.94061 -0.305564 0.330723)
(6.10879 -0.279374 0.243697)
(6.6449 -0.314703 -0.0330972)
(0.977986 -0.128473 0.113951)
(0.617455 0.797301 0.0436801)
(2.00854 0.836504 0.28895)
(0.792863 -0.30797 0.747518)
(-1.28556 -3.24488 0.572499)
(-0.687941 -4.15231 -0.0968188)
(-0.338348 -4.59869 0.0737581)
(0.389421 -4.69609 0.49526)
(1.03104 -4.58939 0.770102)
(1.7607 -4.20546 0.820273)
(2.45091 -3.70676 0.6621)
(3.04797 -3.27783 0.387026)
(3.52572 -2.94772 0.110699)
(3.89206 -2.66931 -0.113491)
(4.16943 -2.40178 -0.274296)
(4.3747 -2.09837 -0.366797)
(4.54377 -1.76263 -0.395307)
(4.70835 -1.42162 -0.370699)
(4.89271 -1.10322 -0.307085)
(5.10763 -0.83072 -0.218466)
(5.35051 -0.610192 -0.117192)
(5.60601 -0.442265 -0.0228736)
(5.86942 -0.310463 0.038011)
(6.04079 -0.241945 0.0128679)
(6.55855 -0.255964 -0.193581)
(1.03489 -0.13691 0.10619)
(0.675796 0.760375 -0.0389069)
(2.34042 0.710295 0.202765)
(0.672593 -0.278375 0.795166)
(-1.48644 -2.97025 0.565675)
(-0.832754 -3.79518 -0.213355)
(-0.459064 -4.19057 0.017761)
(0.282964 -4.37566 0.551953)
(0.946965 -4.38068 0.916071)
(1.72668 -4.07112 1.00214)
(2.44505 -3.59697 0.79743)
(3.02918 -3.20944 0.430624)
(3.48346 -2.88174 0.045751)
(3.84108 -2.59283 -0.265989)
(4.12026 -2.31723 -0.481192)
(4.34342 -2.02576 -0.60575)
(4.53686 -1.7209 -0.658092)
(4.72441 -1.42384 -0.655436)
(4.92217 -1.15428 -0.61663)
(5.13426 -0.928987 -0.552334)
(5.35712 -0.74376 -0.471273)
(5.57633 -0.593782 -0.383597)
(5.81549 -0.458049 -0.301312)
(5.98544 -0.369184 -0.276447)
(6.46498 -0.274079 -0.397643)
(1.12317 -0.164201 0.0825984)
(0.831489 0.904702 -0.219968)
(2.76285 0.659466 0.00293553)
(0.685971 -0.124961 0.87774)
(-1.70833 -2.53177 0.606223)
(-0.989894 -3.30334 -0.315237)
(-0.600018 -3.66346 -0.0663687)
(0.139695 -3.94274 0.587954)
(0.836712 -4.08211 1.07057)
(1.66606 -3.84527 1.20306)
(2.38355 -3.40531 0.935998)
(2.9301 -3.01405 0.455623)
(3.35828 -2.65095 -0.051711)
(3.71929 -2.34003 -0.452681)
(4.02123 -2.07541 -0.714375)
(4.26273 -1.81378 -0.861082)
(4.46366 -1.54877 -0.924234)
(4.6532 -1.29631 -0.928904)
(4.85064 -1.07576 -0.897666)
(5.06096 -0.895876 -0.844706)
(5.28162 -0.754876 -0.776926)
(5.49937 -0.643026 -0.700383)
(5.7381 -0.539232 -0.618997)
(5.91404 -0.448231 -0.569646)
(6.31414 -0.297398 -0.601619)
(1.1998 -0.141886 0.0488826)
(1.04965 1.03869 -0.429196)
(3.05639 0.643519 -0.246822)
(0.720151 0.123802 1.09596)
(-1.8639 -1.87431 0.728528)
(-1.09804 -2.59113 -0.407043)
(-0.697183 -2.8988 -0.232073)
(-0.0276893 -3.28477 0.560198)
(0.694368 -3.58039 1.23788)
(1.56417 -3.43686 1.43323)
(2.26937 -3.06251 1.10978)
(2.76659 -2.64432 0.520684)
(3.16343 -2.23201 -0.0994225)
(3.52719 -1.89915 -0.583531)
(3.85213 -1.64664 -0.894461)
(4.11743 -1.43052 -1.06721)
(4.33689 -1.22564 -1.1455)
(4.54295 -1.03965 -1.16204)
(4.75554 -0.880381 -1.14006)
(4.97922 -0.752567 -1.0952)
(5.21064 -0.652696 -1.0345)
(5.4355 -0.572126 -0.96451)
(5.68045 -0.497416 -0.884257)
(5.85373 -0.408873 -0.818149)
(6.17218 -0.18636 -0.779226)
(1.19554 -0.0754211 0.0189329)
(1.15984 0.497291 -0.509621)
(3.70983 0.848483 -0.84381)
(0.792594 0.613724 1.70461)
(-1.55257 -0.824976 0.971271)
(-1.15368 -1.53697 -0.387392)
(-0.642898 -1.71909 -0.506278)
(-0.131747 -2.36638 0.368723)
(0.53704 -2.90324 1.44987)
(1.39539 -2.83231 1.65895)
(2.03026 -2.50326 1.22709)
(2.45653 -2.05728 0.539768)
(2.82266 -1.6117 -0.142651)
(3.19506 -1.2696 -0.657642)
(3.55545 -1.05411 -0.980362)
(3.86105 -0.913679 -1.15467)
(4.11894 -0.801427 -1.23798)
(4.36335 -0.702077 -1.267)
(4.6147 -0.615965 -1.26499)
(4.87271 -0.544925 -1.23998)
(5.13284 -0.487261 -1.19609)
(5.38116 -0.438189 -1.13773)
(5.65276 -0.386541 -1.06644)
(5.83338 -0.302147 -0.992078)
(6.18475 0.0218435 -0.922224)
(1.02787 -0.0883742 -0.00532931)
(1.43212 0.218095 -0.492442)
(3.8113 0.646463 -0.71774)
(-0.0870141 -0.0497925 2.40825)
(-0.741486 0.270851 1.46416)
(-1.47717 -0.617184 0.300599)
(-0.877768 -0.737716 -0.297022)
(-0.167774 -1.18098 -0.104507)
(0.319746 -2.35523 1.62049)
(0.969596 -2.37025 1.67308)
(1.389 -2.0696 1.07669)
(1.68998 -1.59951 0.316043)
(2.02773 -1.11138 -0.36196)
(2.4626 -0.722798 -0.840356)
(2.95817 -0.47765 -1.11732)
(3.43219 -0.341604 -1.24334)
(3.84988 -0.269743 -1.27959)
(4.21857 -0.213567 -1.27467)
(4.53784 -0.152733 -1.24902)
(4.8106 -0.0824055 -1.21167)
(5.04008 -0.0146398 -1.165)
(5.2303 0.0422689 -1.11488)
(5.47892 0.0977597 -1.07536)
(5.6586 0.188267 -1.05486)
(6.43391 0.524737 -1.11018)
(0.859028 0.00627834 0.0547775)
(1.17721 -0.121658 -0.321123)
(3.85562 0.196944 -0.477403)
(0.410866 -0.831657 2.12152)
(-2.60982 -1.62582 2.912)
(-2.50378 -1.61593 2.09756)
(-1.77318 -1.67748 1.37643)
(-0.708758 -1.55876 0.508556)
(-0.172295 -1.87149 0.920319)
(-0.17924 -1.8036 0.601268)
(-0.382203 -1.60615 0.0811771)
(-0.351523 -1.3269 -0.346157)
(0.137475 -1.06855 -0.65356)
(0.974709 -0.883034 -0.884635)
(1.89162 -0.764863 -1.08008)
(2.70265 -0.66211 -1.22708)
(3.36334 -0.539042 -1.26724)
(3.86403 -0.413719 -1.19732)
(4.21819 -0.306565 -1.06306)
(4.48087 -0.208566 -0.905455)
(4.69044 -0.117264 -0.744871)
(4.85385 -0.0348689 -0.600577)
(5.01463 0.0649847 -0.494957)
(5.06565 0.18988 -0.42967)
(6.234 0.58015 -0.581829)
(1.01093 0.0190805 0.0800872)
(1.04145 0.0220499 0.13238)
(1.0558 0.0592443 0.114718)
(1.30983 0.060917 0.378889)
(0.610012 -0.0472309 0.792449)
(0.257942 -0.213526 1.04673)
(-0.19142 -0.431041 1.28223)
(-0.383358 -0.798064 1.68874)
(-0.15678 -0.930275 2.01003)
(0.192534 -0.964851 2.16505)
(0.689637 -1.00734 2.26453)
(1.24178 -1.06278 2.32374)
(1.81969 -0.977816 2.39259)
(2.35457 -0.808662 2.46391)
(2.79225 -0.635978 2.48589)
(3.08721 -0.48295 2.45288)
(3.25918 -0.353373 2.39039)
(3.35828 -0.262609 2.31689)
(3.42695 -0.222889 2.24355)
(3.48849 -0.228194 2.1768)
(3.55553 -0.263377 2.10731)
(3.62854 -0.32532 2.01682)
(3.81845 -0.399563 1.86905)
(3.88546 -0.475021 1.70168)
(4.97068 -0.699557 1.29014)
(1.04988 0.0257531 0.0733529)
(1.1706 -0.0152129 0.113114)
(1.471 0.118444 0.140241)
(1.71232 0.131722 0.298349)
(1.42149 -0.063962 0.579865)
(0.755207 -0.0803747 1.01635)
(0.433961 -0.0953773 1.40041)
(0.678845 -0.699117 1.68996)
(1.14681 -1.19732 1.90468)
(1.7573 -1.53686 2.03257)
(2.39192 -1.74258 2.12729)
(2.99268 -1.85777 2.21171)
(3.54043 -1.89095 2.29194)
(4.00372 -1.85697 2.36894)
(4.34388 -1.77594 2.43638)
(4.56926 -1.66241 2.48238)
(4.73625 -1.54957 2.49403)
(4.90245 -1.46592 2.46994)
(5.0866 -1.41719 2.42167)
(5.27639 -1.39691 2.36184)
(5.45363 -1.39576 2.29271)
(5.6019 -1.4124 2.20539)
(5.76995 -1.43577 2.08106)
(5.90094 -1.49189 1.93417)
(6.4825 -1.70513 1.56356)
(1.04545 0.0212283 0.0658536)
(1.05914 -0.0631303 0.121293)
(1.32028 0.0138827 0.177535)
(1.57908 0.0615582 0.337282)
(1.66791 -0.0298589 0.471937)
(1.29006 0.0496565 0.808646)
(0.976359 -0.211585 1.21959)
(1.36121 -1.09424 1.47887)
(1.91228 -1.72562 1.68249)
(2.56185 -2.09533 1.79809)
(3.22038 -2.33657 1.84323)
(3.79825 -2.48706 1.84234)
(4.22617 -2.52347 1.8433)
(4.49645 -2.46996 1.89315)
(4.67116 -2.37472 1.98301)
(4.83207 -2.28162 2.0706)
(5.0333 -2.21524 2.1234)
(5.28696 -2.17999 2.13134)
(5.57228 -2.16669 2.10556)
(5.85812 -2.16609 2.06424)
(6.12006 -2.16821 2.01856)
(6.34166 -2.17129 1.96273)
(6.546 -2.17315 1.8793)
(6.73055 -2.21178 1.76599)
(7.04758 -2.3684 1.41379)
(1.06114 0.018618 0.0692041)
(1.0729 -0.0445002 0.127068)
(1.23418 -0.0515146 0.230039)
(1.52732 -0.0499776 0.354463)
(1.52348 -0.024293 0.50077)
(1.20776 0.284606 0.806099)
(1.2642 -0.312585 1.13716)
(1.79648 -1.30489 1.30114)
(2.41875 -1.99805 1.43012)
(3.11133 -2.43974 1.46762)
(3.73096 -2.69708 1.40276)
(4.13821 -2.78826 1.2871)
(4.32093 -2.74794 1.20954)
(4.38137 -2.65779 1.23294)
(4.45168 -2.58994 1.33222)
(4.60808 -2.56958 1.43307)
(4.85626 -2.58611 1.48437)
(5.16319 -2.6178 1.47923)
(5.48834 -2.64766 1.44312)
(5.80599 -2.66959 1.40737)
(6.10385 -2.67827 1.38842)
(6.37245 -2.67476 1.37786)
(6.61197 -2.66112 1.35058)
(6.84616 -2.67508 1.29016)
(7.00068 -2.71487 1.0129)
(1.05835 0.0166788 0.0757701)
(1.07297 -0.0297895 0.127281)
(1.24918 -0.0774205 0.243456)
(1.47145 -0.06757 0.367112)
(1.38139 -0.0151982 0.528896)
(1.21982 0.122065 0.801997)
(1.52011 -0.584295 1.05362)
(2.12354 -1.54599 1.15098)
(2.82352 -2.24522 1.18829)
(3.48013 -2.65988 1.08144)
(3.89918 -2.80575 0.848957)
(4.038 -2.75397 0.605695)
(4.0153 -2.61897 0.471865)
(3.99987 -2.52632 0.490973)
(4.10166 -2.53271 0.594911)
(4.32744 -2.6135 0.681341)
(4.62489 -2.71566 0.701715)
(4.93538 -2.80458 0.66825)
(5.22291 -2.86968 0.623479)
(5.48754 -2.91239 0.602643)
(5.74209 -2.9294 0.618466)
(5.99031 -2.92064 0.654787)
(6.21942 -2.89304 0.682256)
(6.46743 -2.87156 0.674245)
(6.51036 -2.78567 0.491144)
(1.0529 0.020359 0.0823543)
(1.07235 -0.0228825 0.120695)
(1.26579 -0.0523941 0.242577)
(1.40118 -0.0720234 0.424973)
(1.27094 -0.100633 0.628118)
(1.25831 -0.116614 0.897105)
(1.69164 -0.862427 1.03765)
(2.40867 -1.79307 1.05282)
(3.11857 -2.43313 0.941942)
(3.5958 -2.68633 0.636175)
(3.74603 -2.63281 0.22293)
(3.70788 -2.45299 -0.113615)
(3.67513 -2.29711 -0.260661)
(3.75493 -2.26719 -0.225365)
(3.97192 -2.37427 -0.121548)
(4.27668 -2.55473 -0.0574901)
(4.59199 -2.73366 -0.0625555)
(4.85669 -2.86914 -0.0990034)
(5.05356 -2.96072 -0.116375)
(5.21136 -3.02045 -0.0920484)
(5.36625 -3.04396 -0.0284957)
(5.53342 -3.02393 0.0472269)
(5.70648 -2.97295 0.110636)
(5.92643 -2.90721 0.129477)
(5.89571 -2.70854 0.00824961)
(1.05115 0.0255204 0.0848829)
(1.08596 -0.0203437 0.1057)
(1.27022 -0.0132025 0.255718)
(1.29926 -0.0116676 0.488054)
(1.13441 -0.0458126 0.698801)
(1.2996 -0.238542 0.909552)
(1.87694 -1.09222 1.00963)
(2.65785 -2.0196 0.955053)
(3.2496 -2.50983 0.652153)
(3.48571 -2.51224 0.135773)
(3.46934 -2.28111 -0.402709)
(3.45555 -2.09111 -0.754309)
(3.5576 -2.00232 -0.861337)
(3.76962 -2.06394 -0.795178)
(4.06619 -2.27501 -0.690366)
(4.3963 -2.55036 -0.651838)
(4.67677 -2.78569 -0.674736)
(4.85563 -2.93698 -0.686625)
(4.95063 -3.02867 -0.642135)
(5.01814 -3.08955 -0.549048)
(5.096 -3.11099 -0.433974)
(5.19405 -3.07535 -0.333311)
(5.32718 -2.9983 -0.256913)
(5.52566 -2.889 -0.244004)
(5.48002 -2.61088 -0.351981)
(1.05629 0.0255548 0.0795909)
(1.10234 -0.0101715 0.0953523)
(1.22635 0.0528597 0.277678)
(1.19368 0.0950942 0.468251)
(1.13694 0.0922775 0.603693)
(1.44845 -0.330821 0.813988)
(2.12375 -1.32483 0.967353)
(2.82955 -2.19068 0.814088)
(3.23045 -2.42286 0.301428)
(3.30275 -2.19991 -0.335716)
(3.27651 -1.9277 -0.856818)
(3.34592 -1.7534 -1.12921)
(3.53928 -1.73458 -1.16615)
(3.81295 -1.91743 -1.08488)
(4.13729 -2.24056 -1.03516)
(4.43265 -2.5499 -1.0802)
(4.59541 -2.74643 -1.13556)
(4.61657 -2.85516 -1.09336)
(4.5968 -2.95071 -0.953797)
(4.64275 -3.05567 -0.786305)
(4.77223 -3.12317 -0.638734)
(4.94883 -3.11064 -0.54018)
(5.14157 -3.01858 -0.482249)
(5.38094 -2.87327 -0.497165)
(5.38213 -2.53743 -0.609387)
(1.06832 0.0157486 0.07584)
(1.10992 0.0184392 0.0995966)
(1.1422 0.142124 0.272505)
(1.07811 0.20416 0.379473)
(1.17917 0.002247 0.47782)
(1.6606 -0.551858 0.767157)
(2.34757 -1.61476 0.943545)
(2.8981 -2.27923 0.610721)
(3.15142 -2.24415 -0.058325)
(3.20259 -1.91579 -0.64912)
(3.20386 -1.56262 -1.03865)
(3.28685 -1.39448 -1.20001)
(3.47723 -1.46899 -1.20478)
(3.75145 -1.76527 -1.20749)
(4.0658 -2.11581 -1.30754)
(4.27427 -2.33998 -1.43971)
(4.25599 -2.43517 -1.42485)
(4.08344 -2.52937 -1.21415)
(3.96226 -2.7048 -0.960174)
(4.03024 -2.92054 -0.792244)
(4.26317 -3.07055 -0.710819)
(4.57599 -3.09485 -0.690405)
(4.90933 -3.00283 -0.696368)
(5.25306 -2.8156 -0.752485)
(5.32126 -2.41038 -0.878798)
(1.08259 0.00277277 0.07616)
(1.1188 0.0639887 0.108987)
(1.04538 0.24421 0.248435)
(1.06049 0.335258 0.286898)
(1.27683 -0.036698 0.480822)
(1.87958 -0.852589 0.868189)
(2.47479 -1.90121 0.912548)
(2.89911 -2.3089 0.339183)
(3.11485 -2.17654 -0.376697)
(3.22399 -1.75829 -0.835358)
(3.23539 -1.33283 -1.05027)
(3.2554 -1.1618 -1.12772)
(3.39054 -1.28249 -1.19521)
(3.65505 -1.5821 -1.36364)
(3.94739 -1.82653 -1.57765)
(4.03743 -1.90583 -1.60011)
(3.81379 -1.95254 -1.28036)
(3.4652 -2.1237 -0.838797)
(3.30397 -2.43962 -0.623041)
(3.45157 -2.78483 -0.663869)
(3.80601 -3.00831 -0.79357)
(4.23721 -3.04943 -0.920609)
(4.69085 -2.94165 -1.01271)
(5.10845 -2.70957 -1.10115)
(5.27531 -2.22011 -1.23189)
(1.10662 -0.0136115 0.0827329)
(1.108 0.123554 0.114145)
(0.916453 0.385361 0.215341)
(1.13247 0.478306 0.258991)
(1.47234 -0.185777 0.647874)
(2.02192 -1.26589 1.02957)
(2.50534 -2.14064 0.793867)
(2.87565 -2.37274 0.0111372)
(3.14211 -2.21057 -0.661697)
(3.31349 -1.76107 -0.995109)
(3.30592 -1.27015 -1.09221)
(3.23478 -1.03017 -1.14369)
(3.31191 -1.08038 -1.29339)
(3.56185 -1.26582 -1.54787)
(3.81631 -1.38693 -1.66652)
(3.83336 -1.4425 -1.37097)
(3.53532 -1.56104 -0.76098)
(3.14264 -1.81163 -0.34061)
(2.99771 -2.19349 -0.443479)
(3.1892 -2.59915 -0.820851)
(3.58265 -2.85364 -1.15776)
(4.04969 -2.89434 -1.37715)
(4.55302 -2.76528 -1.49249)
(4.99919 -2.52461 -1.56102)
(5.29673 -1.97623 -1.70441)
(1.13641 -0.0298199 0.0921028)
(1.08246 0.203636 0.106189)
(0.808208 0.534898 0.169672)
(1.38601 0.535708 0.307541)
(1.77396 -0.52448 0.86432)
(2.07113 -1.68566 1.08636)
(2.48779 -2.32047 0.529357)
(2.85848 -2.5354 -0.331436)
(3.21077 -2.3622 -0.910647)
(3.41873 -1.86307 -1.14073)
(3.37034 -1.28155 -1.15603)
(3.21855 -0.916715 -1.18663)
(3.25333 -0.81923 -1.35742)
(3.47028 -0.890536 -1.52412)
(3.64803 -1.03268 -1.38736)
(3.59467 -1.20527 -0.918235)
(3.30852 -1.38249 -0.407376)
(3.01647 -1.55122 -0.324494)
(2.9774 -1.8568 -0.790001)
(3.19227 -2.25761 -1.36804)
(3.54135 -2.52994 -1.76067)
(3.96026 -2.58375 -1.96197)
(4.44093 -2.45974 -2.02577)
(4.88028 -2.23353 -2.03918)
(5.30682 -1.69892 -2.14031)
(1.16566 -0.0474294 0.104815)
(1.01495 0.306604 0.0857015)
(0.723534 0.674627 0.125807)
(1.76781 0.470055 0.408302)
(1.95702 -0.883354 1.02107)
(2.06643 -1.93123 0.978588)
(2.47097 -2.47822 0.162304)
(2.87014 -2.76401 -0.638794)
(3.26293 -2.56545 -1.09971)
(3.46898 -1.98007 -1.25235)
(3.38712 -1.29336 -1.21011)
(3.20016 -0.795493 -1.21112)
(3.20855 -0.581219 -1.29574)
(3.36953 -0.620926 -1.26679)
(3.43661 -0.826614 -0.978375)
(3.22802 -1.09452 -0.536815)
(2.84919 -1.23089 -0.270131)
(2.71591 -1.20695 -0.599792)
(2.9389 -1.38895 -1.30285)
(3.28476 -1.76572 -1.9208)
(3.60856 -2.06576 -2.27242)
(3.94376 -2.16156 -2.41351)
(4.35313 -2.0844 -2.42451)
(4.74603 -1.90482 -2.3933)
(5.27041 -1.444 -2.44009)
(1.18591 -0.0589306 0.119026)
(0.911007 0.425172 0.0403386)
(0.763672 0.785351 0.0785331)
(2.13745 0.249226 0.574219)
(1.97887 -1.14472 1.14105)
(2.05661 -2.04261 0.773794)
(2.45057 -2.70128 -0.186605)
(2.86677 -3.02865 -0.8788)
(3.22363 -2.75268 -1.21179)
(3.39471 -2.05674 -1.30206)
(3.30793 -1.26821 -1.22864)
(3.13492 -0.677897 -1.18833)
(3.13348 -0.426845 -1.15377)
(3.22042 -0.490721 -0.983662)
(3.13879 -0.7356 -0.664982)
(2.74759 -0.965733 -0.349742)
(2.30243 -0.92116 -0.392436)
(2.35792 -0.753583 -0.954543)
(2.89971 -0.854077 -1.70389)
(3.48087 -1.17933 -2.28334)
(3.8709 -1.48382 -2.5825)
(4.14608 -1.63038 -2.67026)
(4.44531 -1.63449 -2.64772)
(4.7328 -1.53693 -2.59511)
(5.27771 -1.20088 -2.60441)
(1.18585 -0.0578485 0.127577)
(0.780946 0.557805 -0.0303997)
(1.13861 0.756333 0.113008)
(2.35571 -0.0182207 0.785761)
(1.82891 -1.31902 1.24294)
(2.03377 -2.1247 0.524367)
(2.43148 -2.95311 -0.471938)
(2.80136 -3.22612 -1.05223)
(3.05421 -2.82289 -1.25638)
(3.16737 -2.01277 -1.2929)
(3.10596 -1.146 -1.22809)
(2.99552 -0.528909 -1.16924)
(3.00506 -0.306365 -1.05283)
(2.99793 -0.397878 -0.82538)
(2.73243 -0.587481 -0.556734)
(2.20207 -0.555177 -0.465243)
(1.89321 -0.260004 -0.839797)
(2.21733 -0.128755 -1.46019)
(2.94847 -0.281611 -2.02147)
(3.6634 -0.557023 -2.40489)
(4.15133 -0.810436 -2.61841)
(4.43316 -0.975739 -2.67448)
(4.66683 -1.05598 -2.64509)
(4.85076 -1.06868 -2.60152)
(5.33049 -0.904456 -2.61249)
(1.14994 -0.0209778 0.124762)
(0.706895 0.663839 -0.113557)
(1.70423 0.560544 0.221282)
(2.36925 -0.225833 0.98587)
(1.61008 -1.367 1.30178)
(2.02166 -2.24766 0.22527)
(2.39079 -3.18921 -0.733107)
(2.64724 -3.29162 -1.19755)
(2.77544 -2.71145 -1.2918)
(2.84113 -1.79656 -1.29203)
(2.82186 -0.89507 -1.26674)
(2.79738 -0.29789 -1.23267)
(2.83828 -0.109071 -1.08274)
(2.73949 -0.184551 -0.787601)
(2.33476 -0.19624 -0.607111)
(1.94425 0.0233779 -0.71362)
(1.9902 0.276669 -1.12602)
(2.49966 0.337664 -1.62797)
(3.17311 0.234844 -2.01298)
(3.75143 0.0715573 -2.20293)
(4.17054 -0.102636 -2.26674)
(4.4333 -0.262174 -2.26278)
(4.65929 -0.383708 -2.25726)
(4.82589 -0.52683 -2.26457)
(5.27252 -0.525913 -2.35818)
(1.08482 0.0344384 0.123785)
(0.805392 0.61728 -0.131996)