/*--------------------------------*- C++ -*----------------------------------*\
  =========                 |
  \\      /  F ield         | OpenFOAM: The Open Source CFD Toolbox
   \\    /   O peration     | Website:  https://openfoam.org
    \\  /    A nd           | Version:  11
     \\/     M anipulation  |
\*---------------------------------------------------------------------------*/
FoamFile
{
    format      ascii;
    class       volScalarField;
    location    "25";
    object      k;
}
// * * * * * * * * * * * * * * * * * * * * * * * * * * * * * * * * * * * * * //

dimensions      [0 2 -2 0 0 0 0];

internalField   nonuniform List<scalar> 
17196
(
0.0093407
0.00831185
0.00740471
0.00673288
0.00609622
0.00546601
0.00490656
0.00445302
0.00408682
0.003803
0.00361462
0.00336328
0.00310231
0.00273707
0.00234562
0.00201352
0.00176606
0.00151992
0.00134053
0.0011019
0.000922158
0.000661991
0.000512626
0.000779504
0.000718421
0.00969399
0.00916617
0.00859005
0.00808984
0.0076371
0.00721302
0.0067075
0.00614573
0.00584857
0.00545548
0.00520916
0.0048911
0.0045806
0.00415982
0.00372894
0.00321596
0.00290631
0.00269706
0.0025538
0.00229406
0.00214938
0.0018349
0.00186016
0.00212163
0.00196748
0.00969403
0.00918187
0.0085953
0.00814508
0.00778598
0.00726782
0.00680974
0.00638692
0.00599967
0.00571604
0.00551706
0.00536066
0.0052227
0.00494914
0.00455827
0.00409023
0.00362305
0.00342659
0.00324804
0.00319432
0.00313183
0.00307332
0.00302522
0.00302541
0.0028243
0.00970031
0.00916737
0.00865145
0.00812257
0.0077732
0.00740502
0.00697078
0.00654371
0.00610271
0.00572097
0.00543289
0.0051716
0.00495843
0.00477604
0.00456885
0.00428954
0.00393988
0.0036133
0.00340791
0.00325
0.00317045
0.00308078
0.00314606
0.00312648
0.00303446
0.00967795
0.00920556
0.00859324
0.00817654
0.00780823
0.00738934
0.00698993
0.00661319
0.00619348
0.00587961
0.00557459
0.00529129
0.00500341
0.00473705
0.00453533
0.00435542
0.00408966
0.00386839
0.0036969
0.00353207
0.00339452
0.00327553
0.00315291
0.00315171
0.00308716
0.0096621
0.00922
0.00862248
0.00817051
0.00777104
0.00738922
0.00700661
0.0067196
0.00626366
0.0058261
0.00553143
0.00540242
0.0051707
0.00493731
0.00468447
0.00455159
0.00441727
0.00425382
0.0040336
0.00392065
0.00385579
0.00368328
0.00349405
0.00344486
0.00344056
0.00966121
0.00922971
0.00862457
0.00819005
0.00776024
0.00733755
0.00701604
0.00659199
0.00625271
0.00593185
0.00566326
0.00547184
0.00533034
0.00513131
0.00489548
0.00471028
0.00466074
0.00492845
0.00482623
0.00473393
0.00475774
0.00482888
0.00484755
0.00477574
0.00448642
0.009639
0.0092572
0.00861225
0.00820547
0.00775476
0.0073714
0.00693553
0.00656035
0.00612471
0.00579057
0.00550696
0.00538931
0.00525706
0.00516576
0.00497146
0.00470732
0.00464869
0.00501205
0.0052606
0.00568607
0.00552552
0.00558335
0.00544443
0.00538134
0.00498645
0.00963772
0.00925837
0.00860755
0.00826837
0.00777322
0.00733325
0.00696095
0.00659678
0.00623066
0.00582931
0.00553491
0.00528182
0.00512593
0.00494277
0.0048417
0.00461135
0.00456061
0.00486036
0.00531461
0.00528323
0.00550721
0.00558566
0.00529308
0.00513843
0.00492924
0.00964043
0.00925133
0.00864946
0.00826753
0.00780684
0.00737214
0.00706495
0.00657116
0.00613845
0.00580221
0.00546948
0.00522223
0.00496888
0.00480355
0.00473289
0.00460144
0.00466419
0.00470879
0.00506698
0.00518877
0.00544013
0.00555909
0.00561071
0.00560107
0.00521573
0.00968237
0.00919987
0.00870184
0.00826383
0.00797132
0.00741505
0.00701167
0.00662513
0.00620125
0.00582075
0.00532271
0.00500112
0.00468959
0.004536
0.00431497
0.00430706
0.00427931
0.00438391
0.0045602
0.00496313
0.00503338
0.00513819
0.00515545
0.00520922
0.00511938
0.00967525
0.00920777
0.00867256
0.00834952
0.00794065
0.00752979
0.00727209
0.00692498
0.00642176
0.00600967
0.00558167
0.00514484
0.00487062
0.00463818
0.00454039
0.00459026
0.0049213
0.0055633
0.00622358
0.00643124
0.00659511
0.00659179
0.00812871
0.00760675
0.00721264
0.00967212
0.009203
0.00870845
0.00833864
0.00807071
0.00780603
0.00734145
0.00696283
0.00644444
0.0059401
0.00545897
0.0051568
0.00494334
0.00480585
0.00465733
0.00476143
0.00526226
0.0053402
0.00647881
0.00688257
0.00788421
0.00884859
0.00919268
0.00887686
0.00848803
0.00968734
0.00918745
0.00868283
0.0083167
0.00800808
0.00780211
0.00760131
0.0073744
0.00691923
0.00652588
0.00604945
0.00567542
0.00553697
0.00513343
0.00498521
0.0049232
0.0052375
0.00547402
0.00619595
0.00715764
0.00810322
0.00879894
0.00960308
0.00937515
0.00910042
0.00968339
0.00918048
0.00865016
0.00821211
0.00785861
0.00775561
0.00755662
0.00710699
0.00665188
0.00633307
0.00582465
0.00552872
0.00541025
0.00504119
0.00500161
0.00451955
0.00466279
0.00513316
0.00553376
0.00660812
0.00765774
0.00824759
0.0113741
0.0115135
0.0111697
0.00972103
0.00912893
0.00860321
0.00805185
0.00782158
0.00745265
0.00730672
0.00708931
0.00654469
0.0062642
0.00548563
0.00513881
0.00508523
0.00454303
0.00439067
0.00434034
0.00484922
0.00575262
0.0057223
0.00608294
0.00702257
0.00860838
0.011474
0.0128282
0.0127736
0.00965009
0.00919536
0.00850742
0.00801982
0.00751065
0.00715516
0.00688954
0.00668575
0.00595799
0.00547407
0.00516448
0.00480765
0.00474088
0.00418221
0.00452439
0.00529804
0.00604446
0.00653112
0.00720806
0.00752302
0.00837975
0.0100209
0.0119379
0.0141239
0.0143121
0.00971338
0.00911084
0.00842588
0.00788572
0.00733117
0.00682992
0.00638384
0.0060506
0.00529169
0.004719
0.00458577
0.00400653
0.00373776
0.00346657
0.0041561
0.00488177
0.0066416
0.00633823
0.00748358
0.00882828
0.0100452
0.0118934
0.0134209
0.0155743
0.0154332
0.00975958
0.00901162
0.00844662
0.00776803
0.00718635
0.00666839
0.00599472
0.00567431
0.00464389
0.0041086
0.00392272
0.00336918
0.00309668
0.00271125
0.00326254
0.00473637
0.0057542
0.00638231
0.00770226
0.00912694
0.0107679
0.0119582
0.0147375
0.01605
0.0165633
0.00970726
0.00907528
0.00834307
0.00774739
0.00690331
0.00624884
0.00544796
0.00484684
0.00370528
0.00308186
0.00295037
0.0027434
0.00218387
0.00203554
0.00264942
0.00415951
0.00574939
0.00654138
0.00792612
0.0093584
0.0110762
0.0121203
0.0142187
0.0167642
0.0166573
0.00971607
0.00905668
0.00840329
0.00778082
0.00691114
0.00617622
0.00524219
0.00449121
0.00340196
0.00281921
0.00253502
0.00179833
0.00153083
0.00137517
0.00178453
0.00336942
0.00511206
0.00646007
0.00720827
0.00851393
0.0105139
0.0110271
0.013718
0.0154325
0.0158981
0.00968895
0.00910792
0.00838408
0.00739809
0.0064777
0.00576834
0.00494481
0.00428663
0.00341412
0.00252976
0.00170389
0.00102052
0.000756391
0.000677842
0.00136078
0.0027797
0.00420158
0.00533675
0.00602355
0.00670868
0.00901229
0.00997784
0.0113224
0.0141436
0.0140437
0.00977955
0.00898546
0.00804538
0.00738581
0.00656301
0.00592956
0.0052352
0.00443628
0.00347489
0.00216807
0.00124345
0.00074973
0.000411001
0.000290325
0.00108858
0.00216889
0.00334238
0.00451037
0.00517584
0.00587954
0.00655445
0.00785694
0.0095711
0.0092981
0.00941316
0.0097575
0.00890964
0.00812659
0.0074598
0.0067518
0.00612349
0.00532599
0.00433505
0.00300239
0.00177696
0.00100664
0.000628321
0.00036285
0.000218566
0.000478636
0.0017385
0.00259147
0.00400952
0.00424755
0.00449451
0.00356977
0.00424376
0.00474263
0.00560849
0.00823418
0.00934338
0.0082035
0.00724641
0.00645776
0.00566926
0.00492836
0.00405761
0.00327787
0.00242728
0.00166071
0.00116316
0.000828723
0.000533677
0.00049848
0.000671073
0.0011959
0.00146019
0.00186586
0.00206184
0.00235453
0.00191178
0.00160071
0.00160832
0.00227239
0.00357363
0.00943385
0.00849587
0.0077138
0.00704697
0.00644759
0.00593587
0.00544854
0.00509148
0.00475286
0.00456575
0.0042616
0.00396205
0.00363364
0.00338694
0.00319315
0.00309148
0.0030213
0.0029901
0.00335578
0.00392169
0.00439271
0.00474343
0.00507708
0.00480588
0.00459775
0.00322457
0.00135631
0.000798376
0.000728883
0.000732661
0.000713089
0.000687736
0.000668894
0.000569956
0.00053696
0.000500071
0.000533884
0.000531262
0.000534076
0.000935158
0.00104542
0.00153219
0.00168592
0.00277076
0.00646772
0.00765804
0.00902007
0.00904477
0.0103144
0.0106836
0.00320442
0.00126153
0.000705238
0.000473638
0.000363565
0.000291329
0.000250523
0.000227476
0.000243584
0.000238079
0.000202991
0.00019831
0.000202829
0.00022729
0.000636794
0.000950916
0.00149238
0.00181608
0.00333425
0.00519776
0.00617597
0.00655435
0.00663099
0.00791981
0.00868445
0.00320402
0.00126167
0.000704191
0.00047084
0.000357102
0.000285726
0.000228349
0.000231912
0.000270972
0.000251729
0.000193701
0.000156983
0.000139365
0.000147782
0.0004793
0.000575559
0.00106252
0.0023512
0.00402468
0.00485201
0.00492803
0.00492421
0.0059381
0.00854862
0.00923113
0.00320445
0.00126368
0.000701024
0.000477329
0.000351169
0.000293222
0.000218861
0.0002467
0.000325525
0.000296282
0.000227669
0.000186382
0.000177655
0.00018387
0.000343724
0.000612092
0.000697034
0.00166294
0.00392889
0.00429303
0.00434503
0.00455373
0.00632691
0.0114805
0.0120862
0.00320573
0.0012617
0.000709653
0.000462974
0.000369767
0.000262069
0.000269764
0.000327479
0.000495748
0.000499361
0.000413929
0.000378384
0.000371638
0.000396909
0.00054885
0.000634199
0.000669307
0.00172621
0.00336348
0.00387384
0.00524407
0.00729589
0.0105803
0.0146519
0.0144076
0.00320661
0.00126441
0.000703718
0.000468767
0.00036975
0.000264121
0.000291573
0.000391939
0.000457646
0.000431836
0.000350047
0.000363978
0.000384593
0.000487183
0.000666807
0.000815846
0.000790736
0.00155885
0.00436888
0.00466641
0.00554129
0.00821053
0.0116209
0.0120297
0.0120985
0.0032067
0.00126755
0.000704729
0.000468697
0.000375047
0.000268229
0.000283014
0.000326739
0.000307867
0.000249859
0.000252882
0.000281666
0.000352966
0.000530197
0.000610758
0.000806145
0.000814828
0.0015671
0.00448019
0.00491477
0.00611797
0.00886461
0.00944686
0.00971725
0.00983722
0.00320934
0.00126788
0.000701548
0.000477069
0.00036221
0.000292663
0.000259416
0.000228526
0.000183254
0.000211004
0.000231873
0.000341214
0.000374517
0.000451595
0.000581979
0.00062614
0.000676266
0.00164077
0.0041373
0.00785108
0.00837307
0.00894046
0.00932101
0.0095547
0.00972942
0.00321043
0.00127045
0.000702287
0.000482102
0.00036583
0.000295123
0.000249752
0.000196229
0.000208229
0.000237629
0.000344655
0.000395445
0.000438214
0.00048196
0.000496548
0.000518
0.000818958
0.00288527
0.00506814
0.00905894
0.0107918
0.0126794
0.0127884
0.014282
0.0138222
0.00321418
0.00127142
0.000704256
0.00048327
0.000364789
0.000299569
0.000247176
0.00022471
0.000265789
0.000378682
0.000503295
0.000572977
0.000591701
0.0005967
0.000601549
0.000867592
0.000918427
0.00268328
0.00621593
0.0100921
0.0113195
0.0144925
0.0157561
0.0160718
0.0160412
0.00321788
0.00127691
0.000700091
0.000491191
0.000367783
0.000323777
0.000234039
0.000250894
0.000353732
0.000534308
0.000601443
0.000789968
0.000772629
0.000712833
0.0007358
0.000749653
0.000990546
0.00242589
0.00747578
0.0117104
0.0147054
0.0162994
0.017832
0.0179661
0.0180662
0.0032227
0.00128404
0.000694136
0.000505974
0.000390239
0.000342256
0.000252188
0.00028515
0.000459513
0.000715448
0.000820529
0.000945659
0.00100943
0.00101482
0.0010394
0.00122062
0.00244058
0.00351246
0.00817462
0.0138573
0.0173933
0.018815
0.0234361
0.0225168
0.0220334
0.00322533
0.00130374
0.00069518
0.000536484
0.000457507
0.000385212
0.000329615
0.00026313
0.000397243
0.000808508
0.00114483
0.00135632
0.00136818
0.00147359
0.00151127
0.00157438
0.00334607
0.0049155
0.00971058
0.0160289
0.0225544
0.0284425
0.0284549
0.0295321
0.0279222
0.0032272
0.00132276
0.000730138
0.000617707
0.000571888
0.000558679
0.000513001
0.00040473
0.000413327
0.000679934
0.00107423
0.00129274
0.00134747
0.00138948
0.00144415
0.00224705
0.00364265
0.0068049
0.0119346
0.0195695
0.0260159
0.0324989
0.0336306
0.0361973
0.034957
0.00322845
0.00135158
0.000769126
0.000687057
0.000714319
0.000838501
0.00075682
0.000696241
0.000623071
0.000920759
0.00183958
0.00199402
0.00210046
0.00212599
0.00256375
0.00372233
0.00496698
0.00836143
0.0146837
0.0224069
0.0299602
0.0352228
0.038025
0.0395942
0.0397644
0.00323098
0.001384
0.00080957
0.000807926
0.000872828
0.00106102
0.00114041
0.00118184
0.00110147
0.0017313
0.00264416
0.00308933
0.00352513
0.00341203
0.00415618
0.00588981
0.00694043
0.0101155
0.0169963
0.0243981
0.0319305
0.0363479
0.0413619
0.0429787
0.0432485
0.00323542
0.00141316
0.000899828
0.000926529
0.00107001
0.00115438
0.0014893
0.0017196
0.00170476
0.00208643
0.00296114
0.00392903
0.00478667
0.00482603
0.00540809
0.00724869
0.00759663
0.0101253
0.0168645
0.0237049
0.0313402
0.0360635
0.0411392
0.0449495
0.0453463
0.00324213
0.00144109
0.00100593
0.00105297
0.00122407
0.00130484
0.00177698
0.0019323
0.00223084
0.00241035
0.00390112
0.00635599
0.00829244
0.0091073
0.00956449
0.00977647
0.00973981
0.0106507
0.0164767
0.022889
0.0300659
0.0344195
0.039868
0.046421
0.0463549
0.00324397
0.00147938
0.00114293
0.00122973
0.00138782
0.0015972
0.00183327
0.00191965
0.00230068
0.00357128
0.00539041
0.00723495
0.0090855
0.0104074
0.0114792
0.0124246
0.0134265
0.014245
0.0191349
0.024709
0.0301893
0.0333845
0.0380333
0.046679
0.0468378
0.00324798
0.00152333
0.00126911
0.0013798
0.00157731
0.00189347
0.00214876
0.00229672
0.00281717
0.00404753
0.00573109
0.00758362
0.00902105
0.0103475
0.0110378
0.0126477
0.0152295
0.0183496
0.024287
0.0290372
0.0315655
0.0331909
0.0354367
0.0439615
0.0468885
0.00325351
0.00154331
0.00137068
0.00149574
0.00172631
0.00200467
0.00220695
0.00250358
0.00308947
0.00376826
0.00582388
0.00599345
0.00654374
0.00678667
0.00708351
0.0097273
0.0127765
0.0183654
0.0245472
0.0273708
0.0298246
0.0316293
0.0324551
0.0370855
0.0428461
0.00324683
0.00161607
0.00136415
0.00144338
0.00162091
0.00190728
0.00213853
0.00275011
0.00303092
0.00337078
0.00339333
0.00338635
0.00368974
0.00386753
0.00440004
0.00759758
0.0111722
0.0164941
0.0239156
0.0225592
0.0245137
0.0265518
0.0238764
0.025692
0.0320727
0.00329172
0.00170725
0.00147055
0.00164535
0.00196021
0.00219635
0.00261671
0.00303939
0.00295726
0.00290534
0.00240558
0.00228005
0.00238282
0.00161367
0.00145789
0.00356179
0.00583475
0.0116218
0.0177914
0.0143704
0.0123957
0.0126149
0.0137966
0.0173857
0.0222465
0.00942514
0.00854269
0.00778763
0.00713785
0.00650143
0.00585627
0.00522299
0.00453219
0.003731
0.0029275
0.00233419
0.00191747
0.00135982
0.00124833
0.00138898
0.0018898
0.00264874
0.00370804
0.00564549
0.00515399
0.00499609
0.00488783
0.0049779
0.00521949
0.00619633
0.00942583
0.00850856
0.0076411
0.00692233
0.00634281
0.00583019
0.00538059
0.00505988
0.00481017
0.00458409
0.00429104
0.00401606
0.00366995
0.00337409
0.00294619
0.00260813
0.00235299
0.00233718
0.00263968
0.00326154
0.00410306
0.00506605
0.00544679
0.00540594
0.00512378
0.00320238
0.00133288
0.000787423
0.000616224
0.000558708
0.000509914
0.000515479
0.000577096
0.000663385
0.00087111
0.00104815
0.00135182
0.00179404
0.00227828
0.00243862
0.00292254
0.00310834
0.00443003
0.00701618
0.0112077
0.0135169
0.0140061
0.0137222
0.0134922
0.0132648
0.00319041
0.00124256
0.000682125
0.000447812
0.000329164
0.00025552
0.000210336
0.000183445
0.000163248
0.000163983
0.000173286
0.000204951
0.000304817
0.000432895
0.000808806
0.00169089
0.00191504
0.00286542
0.00532115
0.00678614
0.00738168
0.00768883
0.0077942
0.00818514
0.0087199
0.00318905
0.00124369
0.000679159
0.000446693
0.000324701
0.000253693
0.000201677
0.000171696
0.000147733
0.000134271
0.000118682
0.000109536
0.000113332
0.000129313
0.000338999
0.000780037
0.00096131
0.00299081
0.00475883
0.00591255
0.00762869
0.00751561
0.00868636
0.0102944
0.00994098
0.00319093
0.00123777
0.000680696
0.000448557
0.000323858
0.000251094
0.000204246
0.000172235
0.000151945
0.000134011
0.0001181
0.000106683
9.37031e-05
8.89724e-05
0.000147292
0.000241523
0.000428187
0.00256382
0.00418308
0.00517445
0.00687
0.00943255
0.0117506
0.0119051
0.0117248
0.00318843
0.00124192
0.000678731
0.000445335
0.000322991
0.000251635
0.000203873
0.000173775
0.000151825
0.00013675
0.00011809
0.000107419
9.49881e-05
8.5097e-05
0.000129185
0.000138913
0.000672377
0.00202759
0.0031024
0.00376433
0.00495475
0.00933979
0.0115357
0.014806
0.0143284
0.00318943
0.0012387
0.000680709
0.000447
0.000323152
0.000251755
0.000206154
0.000176041
0.000154635
0.000134077
0.000122159
0.000105649
9.17211e-05
8.67162e-05
0.000100718
9.83273e-05
0.000235576
0.00114798
0.00191463
0.00261928
0.00453822
0.0102572
0.0150485
0.0150752
0.0146712
0.00318925
0.00123919
0.000678498
0.000444482
0.000321883
0.00025123
0.00020558
0.000175572
0.000155362
0.000134414
0.000122597
0.000109582
9.38953e-05
8.81621e-05
8.79191e-05
7.99321e-05
4.69187e-05
0.00194018
0.00634406
0.00630554
0.00821711
0.0135546
0.0148675
0.0171947
0.0158612
0.00318818
0.00124222
0.000681264
0.000445344
0.00032403
0.000252853
0.000207325
0.000175764
0.000154198
0.000131808
0.000121376
0.000105386
9.67128e-05
8.5329e-05
8.75767e-05
8.83933e-05
8.86071e-05
0.000846277
0.00793938
0.00934868
0.0115754
0.0172122
0.0190547
0.018891
0.0181877
0.00319058
0.0012405
0.000679959
0.000446109
0.000322731
0.000251628
0.000206372
0.000175788
0.000154393
0.000133965
0.00011918
0.000107858
9.13175e-05
8.19717e-05
0.000282406
0.000290319
0.000577357
0.00216447
0.00846769
0.0140372
0.0171846
0.0235127
0.0224664
0.0226583
0.0224461
0.00318894
0.0012463
0.000683932
0.000445669
0.000325301
0.000253397
0.000209272
0.00017529
0.000154458
0.00013455
0.000113746
0.000106703
9.2992e-05
0.000172315
0.000276822
0.000293773
0.000527918
0.00321381
0.00939814
0.0157784
0.0220579
0.0246058
0.0252807
0.0265913
0.0270324
0.00319105
0.00124778
0.000683952
0.000449749
0.000328178
0.000255609
0.000207141
0.00016999
0.000150547
0.000126689
0.000102618
0.000109314
0.000111065
0.000195938
0.000363092
0.000413755
0.000806865
0.00429272
0.0107709
0.0201313
0.0249404
0.0285493
0.030301
0.0321065
0.0327622
0.00319088
0.00124877
0.000685969
0.00045124
0.000329886
0.000256503
0.000205364
0.000178913
0.000138868
0.00012219
0.000107279
0.000135554
0.000222251
0.000306787
0.00058873
0.000860996
0.00179999
0.00646958
0.0142487
0.025105
0.0308935
0.0400105
0.0391603
0.0443951
0.0410503
0.00319067
0.00125256
0.000687863
0.000451071
0.000330987
0.000256161
0.000205253
0.000169328
0.00013332
0.000112918
0.000127463
0.000343905
0.000814163
0.00115012
0.00174048
0.00235751
0.00397528
0.0100478
0.0194148
0.0309172
0.0385081
0.0454314
0.0439258
0.0497414
0.046903
0.00319242
0.00125074
0.000685158
0.000452909
0.000329313
0.000255017
0.000205511
0.000172708
0.000139782
0.00013317
0.000254535
0.00127366
0.00255712
0.00379078
0.00522106
0.00675697
0.00895316
0.0164957
0.0260507
0.0383069
0.0452328
0.0448331
0.0464275
0.0530111
0.0513879
0.0031901
0.00125487
0.00068613
0.000442244
0.000323385
0.000245823
0.000217331
0.000177734
0.000337593
0.000383614
0.00172086
0.00376362
0.00575905
0.00726865
0.00864407
0.0105458
0.0134096
0.0221473
0.0316194
0.0428568
0.0497031
0.046932
0.0527202
0.0583428
0.0557187
0.00319316
0.00124808
0.00067813
0.000437916
0.000327442
0.000253443
0.000231434
0.00022638
0.000230423
0.00179351
0.0036647
0.0057503
0.00762119
0.00863956
0.00998527
0.011347
0.0139488
0.022336
0.0323203
0.0433636
0.0503033
0.0480001
0.0547271
0.060696
0.0582451
0.00318997
0.00125199
0.000679847
0.000436804
0.000340571
0.000255477
0.00026554
0.000322434
0.000480436
0.00259269
0.0051758
0.00677957
0.00665937
0.0077833
0.00914913
0.01028
0.0113339
0.0178624
0.0291118
0.0401963
0.0488557
0.0482413
0.0557553
0.0621941
0.0599437
0.00319238
0.00124492
0.000679324
0.000453599
0.000350821
0.000284048
0.000321889
0.000370102
0.00100404
0.00254717
0.00556497
0.00611316
0.00638261
0.00669056
0.00686556
0.0070543
0.00793242
0.011869
0.0229285
0.033031
0.0451391
0.046401
0.054878
0.0636956
0.0610164
0.00318828
0.00125599
0.00070045
0.000487786
0.000379918
0.000337011
0.000350988
0.000374673
0.000688653
0.00407603
0.00660201
0.00764944
0.00807996
0.00813881
0.00886382
0.00867122
0.00899107
0.0112036
0.0193843
0.0282391
0.0392941
0.0430481
0.0530059
0.0608159
0.0614739
0.00319091
0.00126674
0.000735474
0.000501176
0.000426503
0.000457885
0.000469328
0.000500957
0.00143348
0.00382541
0.00667998
0.00729428
0.00821742
0.00895268
0.00874713
0.0088964
0.00952145
0.0124043
0.0192274
0.0260855
0.0340294
0.0373217
0.044644
0.0600188
0.0610442
0.00319086
0.00127914
0.000764455
0.000508376
0.000460221
0.000503134
0.00057404
0.000641743
0.00105425
0.00366412
0.00551813
0.00651731
0.006455
0.00633141
0.0068584
0.00786849
0.00937452
0.013878
0.0212855
0.0259011
0.0299628
0.0296893
0.0326909
0.0481227
0.0528705
0.00319169
0.00128799
0.000742573
0.000505751
0.000454699
0.000488864
0.000558579
0.000690908
0.00108546
0.00157503
0.00191699
0.00225481
0.00258381
0.00310301
0.00488946
0.00645307
0.00888138
0.0144711
0.0221106
0.0242449
0.023204
0.0224855
0.0233674
0.0332821
0.037016
0.00324769
0.00152015
0.000974675
0.000947439
0.000839293
0.000969202
0.00120475
0.00132971
0.00159177
0.0019658
0.00301955
0.00304946
0.00311392
0.00309228
0.00390376
0.00522537
0.00687891
0.0119823
0.0186696
0.0178432
0.0202161
0.0168607
0.0168896
0.0177909
0.0207476
0.0094066
0.00854564
0.00767916
0.00713512
0.0064321
0.0057839
0.00512694
0.00472798
0.00423807
0.00366983
0.00329993
0.00311658
0.00319134
0.0033443
0.00361186
0.00402333
0.00425093
0.00539573
0.00603046
0.00614806
0.00729155
0.00647874
0.00642179
0.00748877
0.00671445
0.00943204
0.00849862
0.00762
0.00693459
0.00640274
0.00589224
0.00544809
0.0050561
0.00476518
0.00446155
0.00420097
0.00392739
0.00371646
0.00348535
0.00316928
0.00285331
0.00275008
0.00310575
0.00381893
0.00539951
0.00622548
0.00657724
0.0069891
0.00729189
0.00701913
0.00320179
0.00134018
0.000781291
0.000620623
0.000564367
0.000556563
0.000610785
0.000781823
0.000969701
0.00114263
0.0011509
0.00120714
0.00158785
0.00176064
0.00222878
0.00228402
0.00356929
0.00878797
0.010693
0.0170048
0.0204482
0.0223095
0.0239534
0.0215748
0.0202771
0.00319048
0.00124196
0.000680876
0.000451269
0.000329091
0.00026155
0.000215672
0.000196817
0.000195968
0.00019627
0.000180459
0.000180416
0.000241232
0.000247577
0.00056808
0.000866583
0.00107141
0.00434489
0.00752252
0.013929
0.0148213
0.0149595
0.0151726
0.0152574
0.014729
0.00318902
0.00124224
0.00068118
0.00044908
0.000324007
0.000255395
0.000205629
0.000177578
0.000154002
0.000139692
0.000124616
0.000111313
0.000105792
9.31638e-05
0.000158762
0.000590111
0.000680465
0.00115852
0.00622838
0.0116242
0.0146832
0.0142962
0.014422
0.0162174
0.0145377
0.00318935
0.0012385
0.000683042
0.000446919
0.000326247
0.00025261
0.000207884
0.000176552
0.000152921
0.000138323
0.000121695
0.000112954
0.000101818
8.90414e-05
0.000225556
0.000280463
0.00031195
0.00119914
0.00596268
0.0112321
0.013389
0.0160894
0.018418
0.0172838
0.0162354
0.00318869
0.00123956
0.000682609
0.000445412
0.000326628
0.000253394
0.000208801
0.000174853
0.000152596
0.00013488
0.000120527
0.000113164
9.64728e-05
0.000100402
0.000210122
0.000226141
0.000221491
0.0019727
0.00615704
0.00971167
0.0147867
0.0192001
0.0194845
0.0212835
0.0192217
0.00318898
0.00124195
0.000680431
0.000445489
0.000325656
0.000253643
0.00021011
0.000175547
0.000155058
0.000132983
0.000124885
0.000104943
0.000130148
0.000119506
0.000217005
0.000220353
0.000224968
0.00252244
0.00801282
0.0109913
0.0173653
0.0215606
0.0237252
0.0228665
0.0219043
0.00318944
0.00124406
0.000680253
0.000445478
0.000326369
0.000254703
0.000208556
0.000175213
0.000153727
0.000131881
0.000122769
0.000105845
0.000134705
0.000132882
0.000200856
0.000205985
0.000168467
0.00252105
0.0091025
0.0164358
0.0223278
0.0275742
0.0260907
0.0288563
0.0261074
0.00319081
0.00124289
0.000676998
0.000445299
0.000325609
0.000255594
0.000210015
0.000176499
0.000154384
0.000132781
0.000122113
0.000109783
9.4811e-05
0.000163417
0.000353163
0.000362975
0.000620375
0.00408938
0.0116993
0.0194291
0.0275312
0.0284055
0.0283302
0.0296715
0.0294581
0.00318936
0.00124281
0.000679379
0.000444969
0.000323782
0.000254172
0.000208068
0.000178372
0.000153757
0.000137097
0.000120942
0.000112995
9.60586e-05
6.82027e-05
0.000669002
0.000750833
0.00197232
0.00704394
0.0160069
0.0224924
0.0317998
0.0337814
0.0332215
0.037711
0.0348752
0.00318992
0.00124157
0.000677292
0.000444791
0.000325584
0.000256463
0.000209527
0.000176726
0.000156787
0.000132464
0.000119332
0.000105458
9.13759e-05
7.57006e-05
0.000593953
0.00116941
0.00367083
0.0115634
0.0205153
0.0281967
0.0351944
0.0411106
0.0382649
0.0433116
0.0400934
0.00318896
0.00123907
0.000676858
0.000443074
0.000324202
0.000253849
0.000211665
0.000177768
0.000159756
0.000135081
0.000112868
0.000162499
0.000150863
0.000171325
0.00106022
0.0026933
0.00725815
0.0161657
0.0257024
0.035739
0.0398851
0.0413917
0.0415807
0.0436784
0.044291
0.00318835
0.00124015
0.000678879
0.000446398
0.000327526
0.000257018
0.00021106
0.00017949
0.000151899
0.000133044
0.000107471
0.000270266
0.000290963
0.000749197
0.00223222
0.00650582
0.0125171
0.0233782
0.0342001
0.0431545
0.0486862
0.0519638
0.0489787
0.0497015
0.0499444
0.00318901
0.00123973
0.000677681
0.000446661
0.000326151
0.000257265
0.000207783
0.000181153
0.000137311
0.000133982
0.000132343
0.000666352
0.00112942
0.00348422
0.00575139
0.0132757
0.0202005
0.0312102
0.0440707
0.0502964
0.0501469
0.0503506
0.0543101
0.0540386
0.0546271
0.00318868
0.00124463
0.000683222
0.000446987
0.000328839
0.000257611
0.000213058
0.000167527
0.000127826
0.000152766
0.000368957
0.00204414
0.006111
0.0106174
0.0147777
0.0225719
0.0293326
0.0387169
0.0500599
0.0503113
0.0565804
0.0533042
0.0546578
0.056114
0.0573411
0.00319012
0.00124616
0.000681204
0.000440862
0.000317514
0.000255569
0.000206077
0.00015934
0.00012512
0.000172872
0.00269962
0.00714202
0.012599
0.0166209
0.0205222
0.0258691
0.0335794
0.0406347
0.0492225
0.0501155
0.0567325
0.0535962
0.0554298
0.0571495
0.0589539
0.00318965
0.0012467
0.00067069
0.000436787
0.000313829
0.000252252
0.000194373
0.000147077
0.000292034
0.00167349
0.00654078
0.0124773
0.0177847
0.021246
0.0243254
0.027743
0.0339023
0.0417852
0.0498274
0.0510837
0.0524309
0.0531265
0.0559698
0.0585252
0.0606219
0.00318962
0.00124684
0.000676681
0.000423168
0.000319327
0.000230909
0.000183186
0.000164658
0.000774916
0.00458615
0.0109312
0.0156429
0.0185794
0.0220047
0.0246635
0.0264396
0.0332102
0.0434528
0.0510354
0.0586005
0.0575498
0.0585197
0.0611856
0.0639531
0.0645584
0.00319055
0.00124745
0.000676407
0.000456658
0.000320257
0.000214191
0.000190917
0.000208649
0.00166701
0.00763062
0.0120268
0.0164158
0.0174279
0.0178643
0.0185947
0.0189877
0.0234727
0.0362294
0.0476422
0.0581272
0.0603774
0.0621947
0.0681248
0.0748841
0.0697381
0.00318712
0.00126935
0.000709264
0.000495324
0.000314053
0.000251903
0.000286339
0.000237047
0.00274135
0.00885751
0.0130136
0.014476
0.015828
0.0153074
0.0139488
0.013519
0.0144506
0.0230784
0.0367624
0.0486389
0.0613175
0.0606035
0.0670014
0.0753059
0.0712272
0.00318978
0.00129571
0.000745239
0.000537125
0.000374725
0.000285714
0.000744114
0.00050209
0.00259284
0.00905903
0.0131819
0.0132362
0.0144011
0.0138469
0.0122385
0.0112112
0.0114112
0.0167931
0.0267187
0.0370121
0.0488563
0.0501215
0.0595345
0.0666609
0.0679002
0.00319154
0.00131417
0.000754998
0.000552426
0.00039975
0.000358817
0.000491446
0.000535598
0.00202064
0.0080674
0.0112473
0.0111363
0.0125924
0.0127673
0.01038
0.00954619
0.0099752
0.0153969
0.0226235
0.0299771
0.0362698
0.0368416
0.0433114
0.0609398
0.0608889
0.00318878
0.00131989
0.000709635
0.000584968
0.000563585
0.000472439
0.000966885
0.000684982
0.00405522
0.00358871
0.00391354
0.00731293
0.00724338
0.00921093
0.00815262
0.00785701
0.00861201
0.0142059
0.0201696
0.0247465
0.0278927
0.0260238
0.0298803
0.0454977
0.0459042
0.00328952
0.0015678
0.00122439
0.00168921
0.00172946
0.00117919
0.000933413
0.000953834
0.00355875
0.00622631
0.00487155
0.00469996
0.00732354
0.00933088
0.0085608
0.00801715
0.00902508
0.0126122
0.0177925
0.0172655
0.0169403
0.0167914
0.0222916
0.0285698
0.0292684
0.00940393
0.00849919
0.00770599
0.00699407
0.00633604
0.0045796
0.00345314
0.00329268
0.00368771
0.00456665
0.00377121
0.00365223
0.00504918
0.00544048
0.00614683
0.00654879
0.00675373
0.00675419
0.00681367
0.00678329
0.00667333
0.00663012
0.00731277
0.00940763
0.0089473
0.00944184
0.00848855
0.00765997
0.00698018
0.0064575
0.00588676
0.0054354
0.00500676
0.00475123
0.00439569
0.00416714
0.00394401
0.00378337
0.003647
0.00347831
0.0031455
0.0032558
0.00388421
0.0046374
0.00518704
0.00656206
0.00823246
0.00980955
0.0125213
0.0133699
0.00320561
0.00135455
0.00074435
0.000673409
0.000623371
0.000485439
0.000514906
0.000672758
0.00096403
0.00112677
0.00118763
0.00128745
0.00152003
0.00171861
0.00248513
0.00286839
0.00528163
0.0144765
0.0217277
0.026807
0.0333677
0.033356
0.0334664
0.0360886
0.0321998
0.00318997
0.00124859
0.000683384
0.000458019
0.000326078
0.000264584
0.000208157
0.000197703
0.000206869
0.000222807
0.000231529
0.000254466
0.000307379
0.00035513
0.00050823
0.00122914
0.00268351
0.0109514
0.0196206
0.0248082
0.0289949
0.0305431
0.0322749
0.0312409
0.0302264
0.00319082
0.00124222
0.000686482
0.000449143
0.000325539
0.000252874
0.000205431
0.000180134
0.000155523
0.0001453
0.000128166
0.000123037
0.00011832
0.000119915
0.000129539
0.00120329
0.00215742
0.00810958
0.0176604
0.0238666
0.0279713
0.0298649
0.0320063
0.0303757
0.0292424
0.0031884
0.00124696
0.000687185
0.0004479
0.000323569
0.000253626
0.000207003
0.000178048
0.000151836
0.000140002
0.000123518
0.000114695
0.000101685
9.24133e-05
9.06126e-05
0.00106211
0.00148981
0.00666584
0.0163134
0.0234624
0.0277401
0.0311355
0.0307895
0.0305492
0.0291592
0.00319078
0.0012467
0.000683725
0.000445507
0.000324039
0.000253496
0.000205291
0.000177027
0.00014891
0.000137119
0.000120749
0.000113325
9.66812e-05
0.000119772
9.86709e-05
0.00062496
0.00147802
0.00569024
0.0173031
0.0244056
0.0264927
0.0317556
0.0318385
0.0350727
0.031182
0.00319098
0.00124894
0.000682494
0.000446224
0.000325104
0.00025644
0.000207425
0.000176217
0.000150178
0.000136298
0.000121907
0.000111568
9.41215e-05
9.08187e-05
0.00010957
0.000392273
0.0018171
0.00644924
0.0183425
0.0258538
0.0281999
0.0345668
0.0338832
0.0379316
0.0341013
0.00319141