/*--------------------------------*- C++ -*----------------------------------*\
  =========                 |
  \\      /  F ield         | OpenFOAM: The Open Source CFD Toolbox
   \\    /   O peration     | Website:  https://openfoam.org
    \\  /    A nd           | Version:  11
     \\/     M anipulation  |
\*---------------------------------------------------------------------------*/
FoamFile
{
    format      ascii;
    class       volScalarField;
    location    "25";
    object      nut;
}
// * * * * * * * * * * * * * * * * * * * * * * * * * * * * * * * * * * * * * //

dimensions      [0 2 -1 0 0 0 0];

internalField   nonuniform List<scalar> 
17196
(
0.103869
0.0930188
0.0830128
0.0752058
0.0686997
0.0625707
0.0563221
0.0504953
0.0457436
0.0421214
0.0396434
0.0376889
0.0365146
0.0340539
0.0304982
0.0270454
0.0245603
0.0225354
0.0212618
0.0194815
0.0202523
0.0176473
0.0138514
0.0222595
0.0228999
0.238888
0.225918
0.208096
0.19105
0.179579
0.171567
0.157605
0.13832
0.127278
0.116252
0.10844
0.100662
0.0921486
0.0828833
0.0749768
0.0641146
0.0570501
0.0520049
0.0490569
0.0453484
0.0445081
0.0407662
0.0458712
0.0574715
0.0675904
0.239615
0.228435
0.211389
0.197462
0.1905
0.180815
0.168006
0.151939
0.138814
0.13084
0.124848
0.120651
0.116028
0.108183
0.0995341
0.0885089
0.0779045
0.0728664
0.0684007
0.0688528
0.0706955
0.0729763
0.076821
0.0781239
0.0892304
0.239862
0.228318
0.21273
0.196906
0.190934
0.184654
0.172995
0.159519
0.145959
0.135702
0.12754
0.120683
0.114071
0.107536
0.102096
0.0962979
0.0884535
0.0799185
0.0743645
0.0723539
0.074296
0.0761592
0.0832889
0.086183
0.0934414
0.239293
0.229335
0.211138
0.198525
0.192751
0.184812
0.173653
0.162065
0.149503
0.140939
0.132362
0.123883
0.115329
0.107129
0.101609
0.0977438
0.0926701
0.0877516
0.0826448
0.0792659
0.079338
0.0809032
0.0830262
0.0861077
0.0930802
0.238809
0.229799
0.211926
0.198955
0.193114
0.185524
0.173786
0.164152
0.152557
0.141918
0.133297
0.127442
0.119951
0.112718
0.105009
0.101691
0.0998861
0.0976017
0.0914364
0.0884609
0.089466
0.0889824
0.0891692
0.0906387
0.106246
0.238655
0.230212
0.2119
0.199551
0.194103
0.184638
0.17268
0.16083
0.155014
0.147629
0.138457
0.130323
0.123459
0.117851
0.110842
0.10514
0.105122
0.113799
0.11099
0.108226
0.111248
0.115724
0.120044
0.119024
0.131384
0.238043
0.230988
0.21165
0.199839
0.194783
0.186139
0.169989
0.160751
0.154803
0.146707
0.135766
0.128818
0.121356
0.117578
0.11246
0.104944
0.104333
0.115495
0.122577
0.132289
0.130483
0.13494
0.135035
0.132268
0.13733
0.237979
0.231155
0.211525
0.200985
0.195235
0.185472
0.171072
0.163358
0.160506
0.149853
0.136485
0.125751
0.118315
0.11192
0.10933
0.103566
0.102468
0.111429
0.124376
0.125038
0.131972
0.13642
0.13374
0.128999
0.134049
0.237991
0.231168
0.212296
0.200368
0.196198
0.187086
0.175146
0.16518
0.16062
0.149808
0.134096
0.123863
0.115049
0.10878
0.107123
0.104197
0.104976
0.107408
0.118409
0.124132
0.133552
0.139414
0.144659
0.14504
0.144667
0.238912
0.230021
0.213463
0.200256
0.200597
0.188189
0.174991
0.169001
0.164163
0.150489
0.131025
0.119627
0.109442
0.10345
0.0980155
0.0977365
0.0968958
0.100756
0.10632
0.117251
0.122884
0.129085
0.132703
0.137099
0.146255
0.238497
0.230207
0.212738
0.202681
0.200259
0.190715
0.182532
0.179306
0.171941
0.156165
0.138442
0.123952
0.114457
0.106655
0.103798
0.104924
0.112859
0.128855
0.143586
0.149164
0.158855
0.162579
0.202867
0.193908
0.200964
0.238121
0.229895
0.213665
0.203184
0.203566
0.196341
0.183773
0.182008
0.173283
0.154117
0.135044
0.123814
0.116384
0.111676
0.107967
0.110888
0.12344
0.125914
0.15165
0.160908
0.189275
0.216793
0.227127
0.220363
0.222663
0.238174
0.229289
0.213253
0.203194
0.201264
0.194453
0.188611
0.191952
0.184701
0.166954
0.14696
0.134348
0.129888
0.120472
0.117545
0.117324
0.124977
0.130547
0.147949
0.170472
0.193893
0.214332
0.238327
0.231239
0.230285
0.23779
0.229171
0.212712
0.200796
0.196972
0.191396
0.184192
0.18118
0.174467
0.160407
0.141792
0.13308
0.130576
0.121517
0.119811
0.107932
0.110486
0.120837
0.130936
0.157335
0.182305
0.198273
0.279123
0.277396
0.272274
0.23831
0.227726
0.211928
0.197592
0.19598
0.182396
0.174625
0.175697
0.169979
0.16234
0.138492
0.127885
0.126278
0.111735
0.105956
0.103194
0.113881
0.1336
0.132401
0.141199
0.164375
0.203507
0.273855
0.299746
0.300661
0.236028
0.229074
0.209813
0.196906
0.188747
0.176421
0.16395
0.163477
0.159831
0.154753
0.140483
0.122526
0.1156
0.101488
0.108627
0.125781
0.142219
0.152247
0.167183
0.175055
0.197566
0.23896
0.283834
0.327954
0.331064
0.236874
0.226311
0.207458
0.192384
0.184128
0.17239
0.155347
0.151382
0.148099
0.141258
0.136489
0.114347
0.0994929
0.0881679
0.104203
0.119102
0.1602
0.151309
0.177611
0.209647
0.241135
0.288348
0.322218
0.363953
0.352505
0.23731
0.223235
0.207539
0.18827
0.181265
0.172381
0.151327
0.150011
0.135716
0.119966
0.115148
0.106277
0.105703
0.0921406
0.106311
0.139262
0.155568
0.162597
0.188383
0.221852
0.266301
0.300082
0.367086
0.386142
0.380636
0.235241
0.224257
0.204715
0.187412
0.177127
0.16675
0.144964
0.135359
0.114142
0.0947426
0.0877823
0.0878337
0.0803048
0.0773571
0.101435
0.158472
0.190272
0.193921
0.210443
0.236181
0.287282
0.323572
0.378345
0.427405
0.392675
0.234377
0.223653
0.206442
0.188237
0.181001
0.174234
0.150011
0.13272
0.113609
0.101052
0.0903934
0.0629941
0.0588672
0.0560886
0.0742595
0.153485
0.246724
0.275982
0.263848
0.252258
0.295954
0.316252
0.396632
0.423678
0.399969
0.232491
0.224847
0.206318
0.181036
0.174762
0.169903
0.146777
0.134055
0.123254
0.103343
0.068579
0.0406333
0.0298749
0.0294296
0.0628998
0.146157
0.236332
0.283767
0.307899
0.264781
0.312053
0.317668
0.365455
0.430699
0.368867
0.233637
0.221633
0.197752
0.180416
0.180104
0.180442
0.158875
0.140372
0.121677
0.0854035
0.0516606
0.0280492
0.0156496
0.0111598
0.0406754
0.0798853
0.137341
0.170055
0.200509
0.219583
0.276108
0.321607
0.398168
0.393965
0.305779
0.233571
0.218645
0.198013
0.175818
0.174612
0.178846
0.161647
0.14043
0.109989
0.0704157
0.042109
0.0258531
0.0165165
0.00694165
0.0158579
0.0498297
0.0791599
0.108202
0.119655
0.139912
0.137863
0.158096
0.176833
0.204841
0.275269
0.104622
0.0956753
0.0873731
0.0790951
0.0768071
0.0769549
0.0703729
0.0630553
0.055971
0.0428682
0.0319859
0.0247834
0.0241574
0.0109342
0.0118727
0.0207872
0.0284284
0.0363786
0.0425706
0.0546875
0.0546802
0.0645414
0.0736312
0.129962
0.111976
0.116222
0.105211
0.0948044
0.0855767
0.079149
0.0747051
0.0683791
0.0614819
0.0558932
0.0532103
0.0492969
0.0463946
0.0427336
0.0393551
0.036728
0.0348825
0.0336309
0.0329974
0.0368298
0.0436173
0.0497975
0.0540003
0.0585749
0.0558536
0.0558265
0.00953863
0.00970525
0.00997339
0.0134989
0.018187
0.022229
0.0259081
0.0294553
0.0285035
0.0299199
0.0303097
0.0349286
0.0368342
0.0391283
0.0729735
0.086186
0.132544
0.154895
0.218894
0.448664
0.512175
0.566015
0.525115
0.54297
0.567663
0.00946168
0.00900627
0.00875772
0.00862041
0.00881788
0.00888609
0.00924572
0.00983088
0.0120623
0.0131558
0.0123277
0.013094
0.0143499
0.0173423
0.0519124
0.0829944
0.137985
0.176394
0.34244
0.545979
0.699505
0.665982
0.555438
0.569631
0.489534
0.00945985
0.00901174
0.00875329
0.00857934
0.00864812
0.00867887
0.00841541
0.0100463
0.0135414
0.014163
0.0119962
0.0106603
0.0101471
0.0115118
0.0394605
0.049961
0.0983201
0.232654
0.415996
0.524203
0.564546
0.519606
0.493727
0.633286
0.582654
0.00946189
0.00902273
0.00871461
0.00868571
0.00850235
0.00895153
0.00805924
0.0106999
0.0163099
0.016742
0.0141693
0.0127526
0.0131302
0.014606
0.0288743
0.0544979
0.0654786
0.165863
0.413382
0.467992
0.491238
0.546714
0.605199
0.956542
0.854504
0.00946495
0.00900667
0.00881539
0.00844649
0.0090072
0.00802586
0.00998957
0.0143087
0.0250442
0.0283574
0.0261371
0.0259408
0.0280297
0.0319655
0.0472268
0.0580244
0.064264
0.179243
0.363533
0.452856
0.620076
0.84116
1.1048
1.26044
1.0579
0.00946879
0.0090248
0.008748
0.00856299
0.00901694
0.00809009
0.0107902
0.0172041
0.0230903
0.0244918
0.0220436
0.0250692
0.0293122
0.0396363
0.0583601
0.0750927
0.0775534
0.159987
0.470026
0.513574
0.646162
0.943491
1.36414
1.25685
0.898259
0.00946791
0.00904573
0.00875893
0.00855804
0.00916542
0.00822968
0.0105131
0.0142847
0.0153656
0.0140861
0.0158362
0.0195524
0.0267232
0.0434636
0.0537374
0.0745809
0.079594
0.162173
0.485889
0.551896
0.7056
1.03835
1.13731
1.10251
0.857113
0.0094783
0.00905222
0.00871524
0.00872192
0.00884095
0.00895115
0.00954403
0.00988838
0.00907086
0.011854
0.0145707
0.0237604
0.0284027
0.0370359
0.0507927
0.0576901
0.0658598
0.167757
0.442129
0.884857
0.966434
1.06743
1.1263
1.09232
0.931558
0.00948137
0.00907165
0.00872617
0.00878452
0.00887936
0.00900292
0.00922312
0.00852615
0.0104338
0.01357
0.0221615
0.0281964
0.0339551
0.0398508
0.0435656
0.0472859
0.0785969
0.293573
0.531864
1.00183
1.22408
1.50109
1.47574
1.62116
1.30645
0.00949541
0.00907733
0.00874143
0.00881183
0.00888234
0.00913347
0.00910482
0.00968968
0.0133243
0.0217124
0.032637
0.0410482
0.0458972
0.0489184
0.0520983
0.0775126
0.0864495
0.261843
0.640918
1.07811
1.26637
1.67515
1.77536
1.73443
1.48794
0.00950687
0.00911171
0.00869836
0.00894834
0.00889723
0.0098063
0.0086252
0.0109562
0.018186
0.0317982
0.0403312
0.058345
0.0609895
0.0587751
0.0629774
0.0660262
0.0896189
0.229992
0.745134
1.19926
1.54881
1.80177
1.96081
1.93016
1.78379
0.00952484
0.00914906
0.00861273
0.00921905
0.00945276
0.0104156
0.00930471
0.0124238
0.0235807
0.042597
0.0552204
0.0694521
0.0783276
0.081559
0.0860313
0.104392
0.213716
0.321344
0.786095
1.38977
1.77529
1.89703
2.46057
2.30189
2.26757
0.0095352
0.00929432
0.00862463
0.00983626
0.0111481
0.0116845
0.0120988
0.011312
0.0201319
0.0475616
0.0754892
0.0966704
0.10201
0.113143
0.119052
0.128403
0.281046
0.430539
0.919514
1.56572
2.23948
2.81994
2.93658
2.98094
2.83991
0.00954522
0.0094412
0.00911322
0.0114245
0.0140924
0.017249
0.0190793
0.0174234
0.020444
0.0387249
0.067918
0.0873964
0.0948962
0.10078
0.108197
0.176193
0.294864
0.579271
1.07776
1.83108
2.49666
3.26306
3.2687
3.60576
3.35653
0.00955236
0.00966742
0.00964752
0.012864
0.0179962
0.0265735
0.0286836
0.0299802
0.0299955
0.0495575
0.107867
0.124569
0.138444
0.145593
0.181427
0.274228
0.379425
0.673826
1.23546
1.98672
2.71439
3.37467
3.69134
3.77087
3.92908
0.00956413
0.00991957
0.0102237
0.0153344
0.022387
0.0345617
0.0448271
0.0530784
0.0545459
0.0939596
0.154227
0.191612
0.230018
0.232234
0.291402
0.426865
0.522865
0.797915
1.40298
2.16799
2.92619
3.38453
3.9545
4.16372
4.26998
0.00958021
0.0101512
0.0114269
0.0177361
0.0278809
0.037954
0.0603233
0.0804168
0.0877302
0.117189
0.178292
0.251353
0.318074
0.331744
0.379406
0.523777
0.572148
0.80305
1.39026
2.05773
2.89297
3.39887
3.92928
4.32574
4.46281
0.00960527
0.0103828
0.0128365
0.0203631
0.032415
0.0435427
0.0741239
0.0965494
0.124196
0.156071
0.256869
0.491749
0.604503
0.586186
0.572677
0.60691
0.684294
0.836044
1.3433
1.97715
2.6894
3.16643
3.58282
4.36846
4.4919
0.0096121
0.0106935
0.0146415
0.0239121
0.0373379
0.0543815
0.0795521
0.105122
0.139064
0.2416
0.366377
0.578723
0.699155
0.690602
0.671715
0.625927
0.658847
0.710063
1.05383
1.70812
2.48867
2.83715
3.27863
3.92674
4.24763
0.00962536
0.0110265
0.0163164
0.0272086
0.0432713
0.0685856
0.0992796
0.130944
0.183877
0.280318
0.381522
0.552835
0.728336
0.781596
0.774042
0.683419
0.688443
0.759804
1.01674
1.39601
1.97379
2.58962
2.8288
3.11167
3.64016
0.00964426
0.0111879
0.0176458
0.0294865
0.0479134
0.0748966
0.10521
0.156378
0.232567
0.277786
0.385287
0.391302
0.376338
0.414753
0.478726
0.558245
0.757901
1.0147
1.29971
1.41827
1.64175
1.95107
2.06018
2.40035
2.03922
0.00962376
0.0116903
0.0174768
0.0283765
0.0451281
0.0711822
0.101661
0.172554
0.227485
0.250053
0.256325
0.256507
0.250918
0.219854
0.322419
0.458926
0.621079
0.973752
1.69125
1.46794
1.62841
1.84474
1.70703
1.97058
1.56298
0.0097935
0.0124986
0.0190071
0.0327559
0.0548065
0.0824167
0.127263
0.192991
0.176358
0.159555
0.126744
0.113614
0.105474
0.0956151
0.119674
0.300318
0.442987
0.76282
1.23331
0.866545
0.831791
0.779466
0.843823
0.892239
0.816806
0.114863
0.10461
0.0924321
0.0810761
0.0773782
0.0729646
0.0640633
0.0566362
0.050477
0.0442675
0.0373083
0.031355
0.0245617
0.021981
0.0226533
0.0277827
0.0373296
0.0540715
0.0873339
0.0862065
0.0986767
0.109695
0.120888
0.149302
0.18765
0.116388
0.106326
0.0950179
0.0853796
0.0801738
0.0746913
0.0665309
0.0599203
0.0566989
0.0547356
0.0520756
0.049881
0.046096
0.0431944
0.0387003
0.0347009
0.0316063
0.0309165
0.034203
0.0418333
0.0518467
0.0623212
0.0654952
0.0632445
0.0641692
0.00946019
0.00956456
0.00989541
0.0114717
0.0139446
0.0160447
0.0196355
0.0256578
0.0338776
0.049445
0.0650731
0.0900928
0.122465
0.163588
0.150434
0.156364
0.155198
0.211642
0.351541
0.615363
0.772163
0.850096
0.914147
0.9773
0.794931
0.00941344
0.00888688
0.00852891
0.00825451
0.00813207
0.0079436
0.00790351
0.00803405
0.00814282
0.00913524
0.0106493
0.0137747
0.0218469
0.0333341
0.0667056
0.148782
0.17261
0.258486
0.477229
0.61862
0.702992
0.745065
0.805439
0.838498
0.896257
0.00940852
0.00889644
0.0085062
0.00825341
0.00801087
0.00789192
0.00758674
0.0075393
0.00739724
0.00752355
0.00737295
0.00745781
0.00840069
0.0102659
0.0289301
0.0707503
0.090544
0.293211
0.496157
0.634822
0.84715
0.858728
1.01981
1.22003
1.18537
0.00941722
0.00886143
0.0085127
0.00827158
0.0080127
0.00783619
0.00766525
0.00751982
0.00755242
0.00746709
0.00732166
0.0072234
0.00695845
0.00706419
0.0125087
0.0221372
0.0411358
0.259558
0.456966
0.586384
0.780556
1.08093
1.42127
1.45142
1.43811
0.00940796
0.00889022
0.00850811
0.00824472
0.00799795
0.00785072
0.0076387
0.00758334
0.00751103
0.00758418
0.00729967
0.00724186
0.00703556
0.00668509
0.010874
0.0124851
0.0643594
0.204975
0.328203
0.426391
0.579245
1.14421
1.42826
1.82336
1.76123
0.00941339
0.00887503
0.00851917
0.00826881
0.00800517
0.00785058
0.00769412
0.00763803
0.00763795
0.00746331
0.00753813
0.0071716
0.00676537
0.00689086
0.00842149
0.00881466
0.0224946
0.117625
0.204743
0.295498
0.530927
1.2639
1.85034
1.86225
1.82064
0.00941232
0.00888121
0.00850656
0.00824369
0.00799074
0.00784003
0.00768749
0.00764171
0.00767704
0.0075022
0.00753844
0.00744477
0.00688949
0.00696531
0.00740823
0.00713388
0.00446305
0.195114
0.675149
0.701469
0.964324
1.63363
1.86824
2.17864
2.02981
0.00940865
0.00889339
0.00853247
0.00825423
0.00803526
0.00787771
0.00775549
0.0076667
0.00767327
0.00739043
0.00750761
0.00716247
0.00710431
0.00674096
0.00734143
0.00782835
0.00840812
0.0840523
0.838637
1.02433
1.3411
2.04112
2.37619
2.40735
2.36127
0.00941512
0.00888079
0.00851929
0.00826174
0.00801985
0.00786958
0.00774956
0.0076891
0.00768987
0.00750312
0.00737234
0.00732289
0.00667292
0.00643739
0.0233285
0.0255222
0.0531988
0.209923
0.867752
1.49867
1.95069
2.73881
2.77429
2.85757
2.8868
0.00940869
0.00890436
0.0085555
0.00825894
0.00807669
0.00790982
0.00785965
0.00769087
0.00774147
0.00760846
0.0071379
0.00732027
0.00688939
0.0136404
0.0230884
0.0258531
0.0489669
0.311841
0.953942
1.66413
2.44527
2.88414
2.98409
3.24731
3.37778
0.0094127
0.00890511
0.0085486
0.00830511
0.00811811
0.00798921
0.00785503
0.0075673
0.00771637
0.00732907
0.0066093
0.00770551
0.00841348
0.0157252
0.0303978
0.0364672
0.0743496
0.413301
1.0704
2.06072
2.66856
3.22906
3.38758
3.7653
3.92936
0.00941335
0.00890809
0.00856688
0.00832646
0.00816603
0.0080289
0.00782615
0.00802441
0.00715576
0.00714987
0.00697022
0.0095073
0.0164282
0.0238326
0.0473629
0.0731881
0.158606
0.597833
1.35899
2.46734
3.20546
4.28455
4.28478
4.9475
4.67981
0.00940954
0.00892624
0.00858896
0.00832536
0.00818895
0.00804553
0.00789909
0.00777869
0.0070565
0.006797
0.00833915
0.0240203
0.0597172
0.0881851
0.13892
0.194341
0.340379
0.886969
1.76431
2.90879
3.69662
4.65838
4.47034
5.27563
5.09145
0.00941694
0.00891391
0.00856713
0.00836868
0.00816753
0.00805568
0.00796404
0.00794069
0.00732779
0.00775699
0.0160722
0.0867294
0.194596
0.306864
0.460065
0.57407
0.803558
1.42337
2.26024
3.36998
4.03734
4.2721
4.36523
5.18987
5.21211
0.00940723
0.00894041
0.00859412
0.00827111
0.00813161
0.00783152
0.00844037
0.00812089
0.0176689
0.0223253
0.110094
0.256842
0.418777
0.585776
0.697651
0.888969
1.09364
1.76523
2.53639
3.50299
4.16374
4.02106
4.67582
5.32713
5.3785
0.00942035
0.00890474
0.00854116
0.00822856
0.00824357
0.00810091
0.0089182
0.0101856
0.0117579
0.101664
0.232728
0.409817
0.568666
0.668001
0.79569
0.864275
1.05666
1.72541
2.5574
3.50594
4.17666
4.08002
4.83091
5.47111
5.59858
0.00940881
0.00892611
0.00857074
0.00822934
0.00861144
0.00819961
0.0102569
0.0141948
0.0238897
0.14564
0.31751
0.438592
0.443641
0.531191
0.636349
0.736656
0.839815
1.3781
2.33355
3.31943
4.13325
4.15318
4.95239
5.61464
5.76521
0.00942034
0.00890779
0.00856053
0.00852077
0.00884048
0.009092
0.0124235
0.0166551
0.0505224
0.143196
0.336087
0.394634
0.430082
0.468085
0.499159
0.525577
0.614624
0.950244
1.93549
2.85149
4.07353
4.2411
5.00031
5.78906
5.87018
0.00940559
0.00898214
0.00874285
0.00903162
0.009549
0.0107615
0.0136358
0.0169919
0.0341497
0.212995
0.364244
0.459982
0.528962
0.567471
0.652866
0.666884
0.711875
0.931835
1.68122
2.55356
3.60013
3.90338
4.74215
5.45222
5.74369
0.00940843
0.00904617
0.00911674
0.0091632
0.0106153
0.0144104
0.0180956
0.0225998
0.0690628
0.192767
0.341054
0.410755
0.520007
0.619884
0.649409
0.696249
0.766906
1.03559
1.65358
2.30734
3.02588
3.32536
3.90906
5.28789
5.44277
0.00939949
0.00910674
0.00936102
0.00936743
0.0116662
0.0162203
0.0226532
0.0296485
0.0529546
0.195295
0.314843
0.40219
0.434724
0.463207
0.537063
0.664536
0.808891
1.16921
1.80157
2.18915
2.52568
2.6002
2.80483
4.17141
3.56621
0.00940035
0.0091636
0.00917299
0.00936847
0.0114903
0.0158246
0.02192
0.0327421
0.0593748
0.0974479
0.128976
0.159648
0.188662
0.239984
0.421927
0.56988
0.718444
1.12568
1.79374
1.94484
1.93988
1.89717
1.96092
2.77432
2.59915
0.00962793
0.010994
0.0122133
0.0176995
0.020927
0.0305386
0.0470133
0.0636073
0.0894967
0.128041
0.221288
0.253225
0.254499
0.242888
0.322711
0.417333
0.535944
0.829184
1.31876
1.26823
1.34578
1.05636
1.03997
1.10047
0.900521
0.11574
0.109976
0.0976532
0.0868399
0.0865968
0.0833212
0.0665924
0.0577307
0.051246
0.0449177
0.0407447
0.0388176
0.039283
0.0399028
0.0420313
0.0460838
0.0486938
0.0637172
0.0750672
0.0822385
0.108679
0.1076
0.119615
0.165543
0.171915
0.116599
0.106328
0.0945066
0.0845817
0.0789819
0.0723147
0.0650104
0.0595827
0.0570794
0.0543735
0.0511491
0.0472281
0.0439543
0.0413654
0.0378852
0.0343998
0.033364
0.0376584
0.0458234
0.0636144
0.0735326
0.0788682
0.0839508
0.089641
0.086533
0.00946025
0.00962476
0.00981481
0.0115189
0.0140392
0.0173407
0.0230235
0.0345931
0.0490085
0.06398
0.0701468
0.0787618
0.10788
0.12892
0.164217
0.164587
0.268524
0.63715
0.803594
1.17176
1.3389
1.55584
1.69255
1.48149
1.46112
0.00941444
0.00888592
0.0085048
0.00830571
0.0080688
0.00804765
0.00797447
0.00844456
0.00955631
0.0106773
0.0108121
0.0118025
0.0168644
0.0187751
0.0464314
0.0754242
0.0953489
0.404577
0.719921
1.3593
1.49662
1.44906
1.36726
1.4445
1.44596
0.0094092
0.00888868
0.00851725
0.00827083
0.00797559
0.00786668
0.00759015
0.00763018
0.00754633
0.00763466
0.00758556
0.0073659
0.00763749
0.00726249
0.013251
0.0526781
0.0655969
0.115581
0.663511
1.27289
1.60031
1.62786
1.65278
1.76793
1.67714
0.00941291
0.00887307
0.00853664
0.00824115
0.00802967
0.00778038
0.00767047
0.00757372
0.00748218
0.0075941
0.0073835
0.00753891
0.00737366
0.00692571
0.0188701
0.0250414
0.0298268
0.119571
0.629709
1.22367
1.51386
1.85765
2.22754
2.12171
2.03564
0.00941028
0.00888474
0.00853994
0.00822804
0.00803426
0.00779375
0.00769854
0.00753415
0.00749966
0.00745569
0.00736403
0.00760983
0.00700277
0.00797248
0.0176168
0.0202935
0.0212918
0.202037
0.661945
1.07346
1.69801
2.32855
2.42445
2.58364
2.46671
0.00941087
0.00889222
0.00852385
0.00823296
0.0080175
0.00780323
0.00774041
0.00754705
0.00761536
0.00734609
0.00767263
0.00706052
0.00958157
0.00943473
0.0183917
0.0200192
0.0216071
0.261109
0.870975
1.2394
1.98988
2.62913
2.97014
2.81926
2.86082
0.00940968
0.00889697
0.00852312
0.00823454
0.00802407
0.00783436
0.00771022
0.00755808
0.00758362
0.00732168
0.00760067
0.0071581
0.00992955
0.0105363
0.0169462
0.018551
0.0161453
0.254843
0.977299
1.8427
2.59917
3.28309
3.23735
3.60346
3.44741
0.00941535
0.00888552
0.00849883
0.00823433
0.00801634
0.00786175
0.007748
0.00760972
0.00760574
0.00740342
0.00753445
0.00747485
0.00697828
0.0129961
0.029717
0.0323954
0.0589632
0.405225
1.23313
2.13404
3.19508
3.39174
3.56556
3.7132
3.90044
0.00941011
0.00888863
0.00852284
0.00824092
0.00799827
0.00785541
0.00769929
0.00769335
0.00756038
0.00762146
0.00743538
0.00765284
0.00704394
0.00537163
0.0562204
0.0662874
0.18391
0.682374
1.63101
2.41747
3.54772
4.02313
4.09714
4.65196
4.54536
0.00941457
0.00889064
0.00851999
0.00825545
0.00804355
0.00791462
0.00775741
0.00765137
0.00774621
0.00741046
0.00737867
0.00718446
0.00670829
0.00596674
0.0494098
0.102512
0.334783
1.0867
2.00993
2.88619
3.74214
4.73499
4.54249
5.12739
5.01961
0.00941212
0.00888917
0.00852701
0.00824925
0.00804932
0.00786946
0.00784453
0.00768045
0.00786545
0.00753724
0.00697223
0.0110699
0.0110957
0.0134226
0.0874937
0.231582
0.644285
1.471
2.42525
3.48678
4.0481
4.5089
4.50511
4.95551
5.18642
0.00941218
0.00890306
0.00854959
0.00830362
0.00810974
0.00796553
0.00785818
0.00782511
0.00756915
0.00749197
0.00673051
0.0184754
0.0212487
0.0579033
0.178903
0.542081
1.0652
2.03528
3.11295
3.92764
4.52101
4.99724
4.825
4.95561
5.39307
0.00941328
0.00890404
0.0085513
0.008312
0.00810046
0.00801538
0.00779116
0.00797946
0.0069347
0.00766251
0.0083321
0.0462567
0.0830995
0.276025
0.478541
1.17499
1.70426
2.75184
3.78064
4.22248
4.27025
4.46974
4.89941
5.00353
5.41898
0.00941126
0.00892761
0.00860205
0.00832261
0.00817715
0.00805255
0.00804495
0.00744327
0.00655963
0.00881853
0.0239153
0.139879
0.479462
0.881454
1.2613
1.78264
2.41046
3.12546
3.85622
3.85521
4.41199
4.25098
4.54001
4.80534
5.31117
0.00941276
0.0089313
0.00858405
0.00827957
0.00799471
0.00808464
0.0078447
0.00722273
0.00651018
0.00989208
0.185814
0.503684
0.980733
1.34491
1.49312
1.98753
2.39733
2.83362
3.46351
3.60041
4.20208
4.06849
4.415
4.70028
5.24467
0.00941363
0.00893572
0.00850897
0.00824595
0.00797024
0.00801667
0.00756955
0.00662278
0.0153988
0.0965716
0.447823
0.917931
1.37183
1.47205
1.78055
1.88072
2.23665
2.79222
3.41631
3.60226
3.8241
3.9675
4.38994
4.69937
5.31391
0.00941067
0.00894066
0.00857662
0.00809304
0.00817919
0.00744285
0.00732809
0.00752969
0.0392805
0.282569
0.733667
1.12019
1.22022
1.55035
1.61402
1.6797
2.12688
2.85854
3.4702
4.1125
4.1701
4.34764
4.78397
5.13101
5.6204
0.00941523
0.00897444
0.00857447
0.00856508
0.0081586
0.0069608
0.0076496
0.00961104
0.0861764
0.466184
0.719006
1.13773
1.12258
1.12935
1.20623
1.25895
1.58904
2.51073
3.38547
4.2565
4.51217
4.82472
5.4255
6.06758
6.10433
0.00940003
0.00909997
0.00883759
0.00914675
0.00791189
0.00806417
0.0111159
0.010427
0.129631
0.448919
0.699958
0.828185
0.958778
0.986926
0.974771
0.999641
1.11388
1.84693
2.9325
4.02064
5.09565
5.0636
5.53692
6.23928
6.25709
0.00938785
0.00928025
0.00917856
0.00964417
0.0092562
0.00881384
0.0276855
0.0223183
0.136562
0.509934
0.733565
0.749079
0.86824
0.908274
0.878569
0.869602
0.93038
1.46384
2.346
3.27816
4.16586
4.40675
5.26637
5.8969
6.11069
0.00938205
0.00932153
0.00922456
0.00984733
0.00967692
0.0111062
0.0181619
0.0223494
0.0968643
0.449549
0.670281
0.655129
0.77751
0.854954
0.756264
0.747995
0.827914
1.32427
2.02145
2.8208
3.30347
3.39559
3.97864
5.5435
5.51189
0.00938357
0.00936094
0.00866411
0.0103053
0.012927
0.0142029
0.0363489
0.0292938
0.191473
0.179599
0.203707
0.402891
0.423651
0.590652
0.576784
0.611222
0.704399
1.21743
1.80336
2.22012
2.43037
2.26071
2.59262
3.93401
3.89752
0.009774
0.0114514
0.0152602
0.032911
0.0432429
0.0367335
0.0350354
0.0396817
0.163213
0.308253
0.288578
0.266028
0.420061
0.554009
0.543643
0.532367
0.658386
0.971448
1.41314
1.24535
1.16342
1.08547
1.4308
1.84063
1.78355
0.116417
0.109778
0.0991213
0.0836938
0.0844767
0.0812604
0.049903
0.0416175
0.0449496
0.0560843
0.0475135
0.0457964
0.0605928
0.061972
0.0672722
0.0697718
0.0710126
0.0715535
0.0746959
0.0799892
0.0874365
0.0951581
0.11479
0.170615
0.176966
0.116567
0.105913
0.0944492
0.0849293
0.0802624
0.0739289
0.0666305
0.0595883
0.0561197
0.0527167
0.0508974
0.0477987
0.044886
0.0437214
0.0426999
0.0391162
0.0404962
0.0484116
0.0584421
0.0657833
0.0836285
0.104607
0.122832
0.159736
0.155085
0.00947266
0.00970947
0.00930336
0.0124892
0.015435
0.0150763
0.0192573
0.0296881
0.048625
0.063331
0.0724706
0.0840095
0.1054
0.12254
0.148489
0.165601
0.282837
0.716958
1.04332
1.31299
1.68278
1.77308
1.83948
2.15933
2.08348
0.00940985
0.00891197
0.00850165
0.00839044
0.00800217
0.00816613
0.0077086
0.00849565
0.0100897
0.0121334
0.0139254
0.0166237
0.0216152
0.0267819
0.0421254
0.104728
0.215852
0.855826
1.51437
1.84627
2.19481
2.35288
2.52444
2.48396
2.49593
0.00941385
0.0088809
0.00854592
0.00826176
0.00801175
0.00783459
0.00760293
0.00772257
0.00758865
0.0079138
0.00770281
0.00804905
0.0083356
0.00924195
0.0106209
0.104685
0.199795
0.739901
1.63651
2.18381
2.53348
2.795
3.03264
2.75953
2.84673
0.00940608
0.00890993
0.00856087
0.00826054
0.00799244
0.00782928
0.00765135
0.00766688
0.0074201
0.00767915
0.00744835
0.00761738
0.00725307
0.00721931
0.00762734
0.0959817
0.145336
0.662278
1.6707
2.35984
2.86575
3.21751
3.24145
3.18226
3.23087
0.00941196
0.00890523
0.00853541
0.00823563
0.00798921
0.00783535
0.00761214
0.00767797
0.00732916
0.00762146
0.00732369
0.00763443
0.00696519
0.00945877
0.00838697
0.0565986
0.147234
0.586452
1.80169
2.56738
2.84517
3.47274
3.57096
3.94527
3.73518
0.00941138
0.00890138
0.00852505
0.00823258
0.00800472
0.00788079
0.00768013
0.00763901
0.00741204
0.00756073
0.0074659
0.00749675
0.00689103
0.00715374
0.00934182
0.0354046
0.175815
0.655517
1.91421
2.86615
3.20822
3.95947
3.99062
4.48728
4.28805
0.00941056
0.00890303
0.00849856
0.0082041
0.00804995
0.00784364
0.00776107
0.00754717
0.00757035
0.007406
0.00756607
0.00724295
0.00681127
0.00696208
0.0254371
0.0524318
0.203934
0.822142
1.94736
3.27439
3.5404
3.76008
4.42677
4.58427
4.6948
0.00941729
0.0088738
0.00850801
0.00822733
0.00809823
0.00787548
0.00776158
0.00767925
0.0075072
0.00740408
0.00754252
0.00710848
0.00701068
0.00702346
0.0523377
0.109602
0.427886
1.15998
2.28819
3.47443
3.84271
4.16066
4.65197
4.92166
5.15735
0.00941053
0.00889815
0.00853638
0.00825107
0.0081043
0.00784264
0.00770568
0.00775489
0.00732804
0.00763174
0.00705855
0.00795041
0.00786372
0.00850218
0.10777
0.270555
0.912489
1.65418
2.86456
3.53229
4.37175
5.31795
5.1397
5.83012
5.78581
0.00941821
0.00888579
0.00854646
0.00826564
0.00815531
0.00785011
0.00785886
0.007733
0.00751575
0.00720071
0.00685672
0.00979297
0.0280637
0.0442341
0.389905
0.715336
1.56634
2.40612
3.25918
3.91811
4.50667
4.99985
5.31545
5.73211
5.99504
0.00940678
0.00892233
0.00858483
0.00829038
0.00812455
0.00780832
0.00794798
0.00760665
0.00742453
0.00687442
0.00865428
0.0218275
0.166678
0.368909
1.08159
1.60844
2.61544
3.17943
3.65813
4.23011
4.51837
5.41076
5.13451
5.74408
6.04862
0.00941973
0.00890121
0.00856407
0.00829427
0.00817785
0.00792916
0.00808296
0.00735018
0.00749333
0.00685822
0.0128621
0.142305
0.419776
0.879002
1.64338
1.91106
2.21355
2.96076
4.11332
4.07917
4.46744
4.97468
5.38132
6.14769
6.08299
0.0094075
0.00892599
0.00859709
0.00831555
0.00817481
0.00795058
0.0081017
0.00763562
0.00695729
0.0141576
0.0982806
0.442555
0.80858
1.40895
1.68246
2.40801
2.38005
2.91528
3.8079
4.5524
4.46811
4.55983
5.43417
5.57554
5.96946
0.00941787
0.00891381
0.00861184
0.00831736
0.00826738
0.00806853
0.00797253
0.00717274
0.00515255
0.0976344
0.319371
0.888299
1.31969
1.80825
1.99621
2.59903
2.18652
2.72404
3.47544
4.02134
4.48923
4.3157
4.69183
5.50678
5.70183
0.00940683
0.00894956
0.0086074
0.00824331
0.00801277
0.00813135
0.00722322
0.00872164
0.0649997
0.324457
1.07645
1.47647
1.79514
1.76195
2.18433
2.02046
2.03172
2.35223
3.05606
3.81324
3.92668
4.04679
4.39209
4.78402
5.32991
0.00941554
0.0089355
0.00854767
0.00820644
0.00815503
0.00767513
0.00722561
0.0386198
0.275747
1.08512
1.27776
1.9825
1.73261
2.17654
1.90178
1.84398
1.90799
2.20162
2.77833
3.60346
3.78151
3.99935
4.35618
4.75991
5.26845
0.00941055
0.00897524
0.00864932
0.00840092
0.00798971
0.00709365
0.0119281
0.210882
0.771361
1.48636
2.2325
1.93943
2.08074
2.24677
1.93377
2.17177
2.63851
2.5864
2.78932
3.40189
4.13169
4.80245
4.8767
5.58695
5.64138
0.00940931
0.00903504
0.00886448
0.00880251
0.00793618
0.00723274
0.0704786
0.453302
0.975975
1.73081
2.28917
2.02604
1.79408
1.94618
1.96745
2.12219
2.7561
2.92369
3.15092
3.88947
4.60484
5.39442
5.41111
6.07699
6.0101
0.00939538
0.00913333
0.00942022
0.00927295
0.00890729
0.0166854
0.0977133
0.43793
1.11297
1.23277
1.60372
1.72718
1.68009
1.77931
1.8381
2.00223
2.37854
3.24865
4.0876
4.85808
4.91213
5.19795
5.5951
5.94982
6.18144
0.00939383
0.00924
0.00970024
0.0095713
0.00984986
0.0233842
0.111424
0.493018
1.08932
1.33902
1.39995
1.51722
1.53787
1.45424
1.44583
1.63416
1.79099
2.75871
4.07963
4.80275
5.34382
5.61041
6.01156
6.06365
6.27141
0.00939234
0.00923857
0.00974297
0.00969935
0.0100846
0.0174586
0.0826411
0.300774
0.716024
1.09257
1.1833
1.33413
1.42555
1.29528
1.17491
1.22356
1.41351
2.12779
3.42618
4.18728
4.74797
4.69142
5.53245
6.2263
5.91335
0.00943461
0.00880466
0.0110132
0.0104227
0.011084
0.0296365
0.0586658
0.116673
0.331749
0.687897
0.960296
1.09357
1.27627
1.21573
1.09333
1.02104
1.14543
1.78934
2.44923
2.91901
3.43902
3.50944
4.07122
4.64445
4.43062
0.00986066
0.0118052
0.0268099
0.0351017
0.0427521
0.0525046
0.0469824
0.088578
0.30518
0.560322
0.831408
0.855198
1.04556
1.07984
1.04993
0.939795
1.07652
1.39528
1.71317
1.84907
2.0037
2.00064
2.40844
2.33753
2.11774
0.117678
0.106896
0.10096
0.0868348
0.0683405
0.0713106
0.0472832
0.0435041
0.0686823
0.119657
0.153734
0.14348
0.157304
0.151033
0.125497
0.109092
0.0984445
0.0978438
0.0948623
0.101297
0.108384
0.114014
0.143246
0.158162
0.164936
0.116793
0.105674
0.0948054
0.0849933