/*--------------------------------*- C++ -*----------------------------------*\
  =========                 |
  \\      /  F ield         | OpenFOAM: The Open Source CFD Toolbox
   \\    /   O peration     | Website:  https://openfoam.org
    \\  /    A nd           | Version:  11
     \\/     M anipulation  |
\*---------------------------------------------------------------------------*/
FoamFile
{
    format      ascii;
    class       volScalarField;
    location    "25";
    object      omega;
}
// * * * * * * * * * * * * * * * * * * * * * * * * * * * * * * * * * * * * * //

dimensions      [0 0 -1 0 0 0 0];

internalField   nonuniform List<scalar> 
17196
(
0.0215204
0.020288
0.0191414
0.0182339
0.0173362
0.0164379
0.0155793
0.0148241
0.0141608
0.0135994
0.0131949
0.0126548
0.0121249
0.011351
0.0104872
0.00979171
0.00912565
0.00835261
0.00782927
0.00701413
0.00649216
0.00484931
0.00586576
0.00875691
0.00854842
0.0109597
0.0106554
0.0103151
0.0100104
0.00970399
0.00943965
0.00910074
0.0087158
0.00846576
0.0081389
0.00792275
0.00762454
0.0073088
0.0069202
0.00652878
0.00609258
0.00588084
0.00572782
0.00554031
0.00524906
0.00509005
0.00489793
0.00498803
0.00505973
0.00481248
0.010961
0.0106648
0.0103223
0.010039
0.00979832
0.00947054
0.00917204
0.00886276
0.0085932
0.00837401
0.00820745
0.00808708
0.00791692
0.00762593
0.00727192
0.00686137
0.00653027
0.00642479
0.00628142
0.00635212
0.00624706
0.00631051
0.00622392
0.00635044
0.00569155
0.010964
0.0106564
0.0103517
0.0100294
0.00979618
0.00954051
0.00926584
0.00897179
0.008667
0.00840285
0.00815843
0.00794264
0.00775778
0.00756963
0.00736069
0.00709762
0.0068046
0.00656978
0.00643784
0.00630515
0.006249
0.00621386
0.00631288
0.00633207
0.00619493
0.0109502
0.0106812
0.0103176
0.010059
0.00981407
0.00953925
0.00927645
0.00903192
0.00874992
0.00853979
0.00828068
0.00803576
0.00777382
0.00753357
0.0073843
0.00722638
0.00700031
0.0068491
0.00671063
0.00658047
0.00647364
0.00634986
0.00624522
0.00630172
0.00622452
0.0109407
0.0106897
0.0103328
0.0100532
0.00979648
0.00953564
0.00928431
0.00910147
0.00881555
0.00853479
0.00833448
0.00817582
0.00796251
0.00773835
0.00752043
0.00744257
0.0073314
0.00717951
0.00711337
0.0071415
0.00692857
0.00684967
0.00655046
0.00652982
0.0065417
0.0109387
0.010698
0.0103359
0.0100625
0.00979726
0.00949799
0.00928648
0.00901897
0.00881285
0.0085962
0.00839407
0.008276
0.00813018
0.00793206
0.0077037
0.00756347
0.00769544
0.00795518
0.00797125
0.00818182
0.00817434
0.00812337
0.00792496
0.00780904
0.00740631
0.0109267
0.0107124
0.0103313
0.0100682
0.00979408
0.00951734
0.00923735
0.00899242
0.00870965
0.00846653
0.00827138
0.00819843
0.00808328
0.00800505
0.00777172
0.00756875
0.00768511
0.00816819
0.00833349
0.00859996
0.00873851
0.00850189
0.00834351
0.00824719
0.00799047
0.0109266
0.010713
0.0103276
0.0101116
0.00979993
0.0095079
0.00924782
0.00899819
0.00872137
0.00843338
0.00825132
0.00808757
0.00797684
0.00785946
0.00775408
0.00758706
0.0076246
0.00817032
0.00839568
0.00871088
0.00859381
0.0084416
0.00833279
0.00846298
0.00821187
0.0109267
0.0107099
0.0103547
0.0101149
0.00981743
0.00952737
0.00930442
0.00895709
0.00865471
0.00840691
0.00817859
0.00803617
0.00784902
0.00775144
0.00768739
0.00759293
0.00769725
0.00780347
0.0081656
0.00854358
0.00851186
0.0085035
0.00847103
0.00840235
0.00825847
0.0109523
0.0106786
0.0103898
0.0101118
0.0099174
0.00954362
0.00928489
0.00896983
0.00868492
0.00841031
0.00806352
0.00786315
0.00763013
0.00748408
0.00734118
0.00734969
0.00735643
0.00747837
0.00770691
0.00803701
0.0081365
0.00912932
0.00889109
0.00914951
0.00887596
0.0109512
0.010679
0.0103804
0.0101539
0.00990555
0.0096183
0.00943022
0.00915589
0.00881447
0.00855166
0.00823531
0.00793108
0.00775785
0.0075635
0.00750819
0.00771775
0.00820016
0.00880025
0.009044
0.0091674
0.0104666
0.0104139
0.0110831
0.0114443
0.0107585
0.0109517
0.0106735
0.010398
0.010153
0.00996336
0.0097911
0.00948797
0.00920661
0.00883198
0.00849616
0.00817769
0.00800666
0.00782678
0.00769093
0.00763619
0.00798472
0.00838802
0.00870893
0.00967166
0.00984132
0.0106933
0.0110474
0.0110887
0.0112036
0.0110624
0.0109589
0.010665
0.0103792
0.0101382
0.00992166
0.00979479
0.00963658
0.0094416
0.00919301
0.008973
0.00865852
0.00846986
0.00833199
0.00809832
0.00811522
0.00824385
0.00860333
0.00890001
0.00954399
0.0101843
0.0105805
0.0109517
0.0112262
0.0114205
0.01135
0.010957
0.0106599
0.0103606
0.0100818
0.00984679
0.0097409
0.00962843
0.00930409
0.00904572
0.00883309
0.00847941
0.00835318
0.00822605
0.00819212
0.00793542
0.00782953
0.00805289
0.00848586
0.00897992
0.00983879
0.0103212
0.0110912
0.0129436
0.012979
0.0127122
0.0109723
0.0106367
0.0103256
0.0100016
0.00979775
0.00954846
0.00945519
0.00926296
0.00897152
0.00874034
0.00822711
0.00832436
0.0079633
0.00778739
0.008198
0.00805878
0.00852627
0.00895672
0.00901894
0.00936296
0.0100729
0.0112347
0.0126219
0.0133234
0.0132249
0.0109317
0.0106752
0.0102701
0.00997445
0.00961695
0.0093667
0.00917608
0.00891474
0.00842983
0.00835693
0.00796417
0.00783051
0.00776875
0.00769747
0.00831026
0.0089201
0.00926096
0.00959565
0.00992219
0.010121
0.010866
0.0116888
0.0124915
0.0136267
0.0134741
0.0109636
0.0106268
0.0102334
0.0098839
0.00949779
0.00914373
0.00881853
0.00846418
0.0078795
0.00765611
0.00755916
0.00732527
0.00756363
0.00746063
0.00828715
0.0091348
0.0100581
0.0101245
0.0107632
0.0112782
0.0118561
0.0125863
0.0131781
0.0142553
0.0137349
0.0109917
0.0105664
0.0102556
0.00980693
0.00942428
0.00900899
0.00849166
0.00817122
0.00740987
0.00718458
0.00691327
0.00652976
0.00702715
0.00658322
0.00785269
0.0089677
0.00949349
0.00990034
0.0108347
0.0115745
0.0122553
0.0128084
0.0140894
0.0145608
0.0145529
0.010962
0.0106036
0.0101866
0.00979795
0.00923061
0.00873614
0.00809416
0.00748071
0.00642568
0.00629944
0.0063011
0.00558101
0.00527051
0.00569676
0.00728222
0.00864904
0.00944648
0.0101051
0.0108397
0.0116566
0.0124465
0.0128893
0.0140693
0.0154291
0.0147712
0.0109613
0.010602
0.0102158
0.00982764
0.0092319
0.00867553
0.00790146
0.00720432
0.00611486
0.00582924
0.00540466
0.0047798
0.00460399
0.00448331
0.00563079
0.00811853
0.00916766
0.00981419
0.0109466
0.01179
0.0121016
0.0125762
0.013946
0.0144723
0.0144327
0.0109554
0.0106124
0.0102005
0.00960231
0.00896051
0.00839112
0.00767442
0.00705092
0.00601088
0.0052052
0.00425464
0.00326571
0.00315343
0.00293562
0.00501241
0.00729781
0.00823966
0.00900414
0.00944563
0.0101419
0.0116421
0.0120579
0.0130215
0.0139019
0.0140712
0.010997
0.0105514
0.0100162
0.00958847
0.00900964
0.00852568
0.00789667
0.00716262
0.00606212
0.00465411
0.00349961
0.00288411
0.00256498
0.0028465
0.00453697
0.00636262
0.00718422
0.00709996
0.00807845
0.00799216
0.00951591
0.0108396
0.0117963
0.0125364
0.0125355
0.0109827
0.0105081
0.0100627
0.00963323
0.00913419
0.00863625
0.00792556
0.00691755
0.00552017
0.00392677
0.00325968
0.0027057
0.00228876
0.00144197
0.00363655
0.00582835
0.00656929
0.00742537
0.00682603
0.0090797
0.00735512
0.00897511
0.00942035
0.00991464
0.01049
0.0215079
0.0201566
0.0189418
0.0178442
0.0166835
0.0154473
0.0138068
0.0122674
0.0101771
0.00834462
0.00701755
0.0056454
0.00551002
0.00610726
0.00725283
0.00894122
0.00972887
0.0107568
0.0124641
0.011564
0.00994105
0.0092199
0.010972
0.0101482
0.0121998
0.0216286
0.0205164
0.0195493
0.0186893
0.0178767
0.0171372
0.0164219
0.0158312
0.015299
0.0149776
0.0144297
0.0139282
0.0132673
0.0127939
0.0124488
0.0123381
0.0122364
0.0124283
0.014118
0.015016
0.0156969
0.0159693
0.016256
0.0164075
0.016085
0.338053
0.13975
0.0800507
0.0539956
0.040285
0.0320792
0.0265452
0.0227088
0.019996
0.0179466
0.0164987
0.015285
0.0144231
0.0136493
0.012815
0.0121298
0.0115598
0.0108843
0.0104705
0.0103603
0.0102467
0.0102702
0.0104285
0.0115315
0.0118956
0.338673
0.140073
0.0805276
0.0549438
0.0412304
0.0327849
0.0270961
0.023139
0.0201939
0.0180969
0.0164663
0.0151451
0.0141346
0.0131061
0.0122667
0.0114576
0.0108155
0.0102956
0.00973672
0.00952007
0.00882906
0.00868805
0.00896875
0.00976539
0.0102544
0.338697
0.140003
0.0804488
0.0548806
0.0412924
0.032922
0.0271346
0.0230843
0.0200106
0.0177737
0.016147
0.014726
0.0137345
0.0128375
0.0121463
0.0115202
0.0108067
0.010106
0.0096748
0.00925598
0.0087292
0.00833267
0.00859591
0.00922101
0.00961367
0.338669
0.140055
0.0804424
0.0549557
0.0413025
0.0327566
0.0271565
0.0230563
0.0199587
0.0176969
0.0160677
0.0146152
0.0135302
0.0125887
0.0119042
0.0112315
0.0106452
0.0100259
0.00950427
0.0091733
0.00884505
0.00832927
0.00839467
0.00948523
0.00966597
0.338694
0.140085
0.0805016
0.0548125
0.0410524
0.032653
0.0270045
0.0228867
0.019795
0.0176095
0.0158369
0.0145865
0.0132588
0.0124168
0.0116216
0.0109299
0.010415
0.00963054
0.0092522
0.00855425
0.00845714
0.00867361
0.0086947
0.00994915
0.00997349
0.338651
0.140103
0.0804433
0.0547434
0.0410061
0.0326475
0.0270221
0.0227818
0.0198198
0.0176319
0.0158798
0.0145189
0.0131206
0.0122914
0.0114257
0.0108645
0.010196
0.00974358
0.00929497
0.00908616
0.00857571
0.00870228
0.00851881
0.00946966
0.00963583
0.338691
0.140127
0.0804583
0.0547668
0.0409198
0.0325929
0.0269202
0.0228734
0.0200362
0.017738
0.0159687
0.0144057
0.0132082
0.0121986
0.0113656
0.010809
0.0102373
0.00966309
0.0092206
0.00890525
0.00867059
0.00853724
0.00830631
0.00881371
0.00892898
0.338599
0.140063
0.0804967
0.0546978
0.0409695
0.0326955
0.0271809
0.0231106
0.0202025
0.0178001
0.0159136
0.0143606
0.0131859
0.0121934
0.0114579
0.0108535
0.0102683
0.00978064
0.00935768
0.00887271
0.00866388
0.00837565
0.00827581
0.00874713
0.00873819
0.338604
0.140047
0.0804805
0.0548808
0.0412
0.0327808
0.0270789
0.0230149
0.0199571
0.0175113
0.015552
0.0140246
0.0129057
0.0120941
0.0113977
0.0109547
0.0104197
0.00982812
0.00952902
0.00904243
0.00881627
0.00844682
0.00835908
0.00876991
0.00877859
0.338499
0.140065
0.0805653
0.0548433
0.041069
0.0327991
0.0271478
0.0231907
0.0199477
0.0174408
0.015421
0.0139586
0.0128919
0.0121979
0.0115464
0.0111929
0.0106238
0.0102477
0.00969849
0.00936088
0.00893855
0.0086515
0.00869151
0.00892505
0.00897297
0.33848
0.14014
0.0804854
0.0548919
0.0413368
0.0330172
0.0271344
0.0228997
0.0194508
0.0168031
0.0149126
0.0135396
0.0126682
0.0121281
0.0116836
0.0113539
0.0110529
0.0105477
0.0100328
0.00976466
0.00949467
0.00904631
0.00909415
0.00930808
0.00936956
0.338347
0.140347
0.0805942
0.0548835
0.0412831
0.0328601
0.0271033
0.022952
0.0194868
0.0167958
0.0148592
0.013616
0.0128873
0.0124428
0.0120816
0.0116926
0.0114198
0.0109305
0.010399
0.0099709
0.00979748
0.00991809
0.00952467
0.00978189
0.00971676
0.338255
0.140272
0.080604
0.0545415
0.041039
0.0329679
0.0272436
0.0232611
0.019732
0.0169992
0.0151655
0.0140304
0.0134122
0.0130242
0.0126942
0.0122612
0.0119058
0.0114171
0.0105606
0.0102374
0.0100713
0.0100862
0.00968979
0.00990698
0.00983205
0.338096
0.140105
0.0801185
0.0540686
0.0405814
0.0323891
0.0268878
0.0232292
0.0202175
0.0175581
0.0158165
0.0147917
0.0141994
0.0137872
0.0133474
0.0127534
0.0123536
0.0117473
0.0110735
0.0106875
0.0104203
0.00995962
0.0102887
0.0100388
0.010061
0.337975
0.139808
0.0797227
0.0534093
0.0396929
0.031554
0.0263851
0.0232233
0.0207721
0.0185796
0.0170541
0.0160074
0.0151719
0.0146023
0.0141311
0.0135738
0.0130908
0.0124089
0.0118853
0.0112783
0.0110376
0.0104374
0.0103011
0.0105
0.0101205
0.337822
0.139522
0.0791857
0.0526873
0.0389881
0.0306992
0.0254402
0.0222659
0.0201934
0.018426
0.0171447
0.0161228
0.0153255
0.0146922
0.0142627
0.0137978
0.0132738
0.0126774
0.0121144
0.0112538
0.010912
0.0107394
0.0104594
0.0103222
0.0101285
0.337719
0.139211
0.0787468
0.0522396
0.0383781
0.0304153
0.0246886
0.0213835
0.0194318
0.0178039
0.0166084
0.0156316
0.0150489
0.0145475
0.0142541
0.0138393
0.0132774
0.0126085
0.0121305
0.0115199
0.0108333
0.0106104
0.0104699
0.0103912
0.0101609
0.337536
0.138797
0.0783645
0.0517099
0.0377625
0.0299669
0.0239731
0.0200135
0.0179623
0.0154439
0.0151872
0.0129253
0.0137178
0.0127133
0.0134941
0.0137888
0.0133195
0.0126373
0.0122659
0.0115768
0.0111794
0.0108701
0.0111276
0.0106264
0.0103197
0.337488
0.138344
0.0780609
0.0514272
0.0371691
0.0293702
0.0230449
0.0182612
0.016544
0.0147818
0.0147127
0.0125016
0.0117912
0.0114764
0.0115115
0.0126616
0.0132519
0.0131783
0.0126191
0.0125398
0.0121307
0.0117669
0.0116004
0.0118875
0.0110268
0.33744
0.138152
0.0777812
0.050712
0.0364516
0.0276074
0.0216436
0.0175397
0.015321
0.0144391
0.0117933
0.0110115
0.0110669
0.0106255
0.0104988
0.0112759
0.0125248
0.0134601
0.0141316
0.0138902
0.0130861
0.0127273
0.0125271
0.0124201
0.0120045
0.337352
0.137945
0.0776777
0.0507261
0.0360297
0.0267658
0.0209766
0.0160098
0.0132842
0.0115151
0.00998834
0.010065
0.0101218
0.0100683
0.0102495
0.0119402
0.0124726
0.0133198
0.0137872
0.0144125
0.0142422
0.0140512
0.0139109
0.0136067
0.0139658
0.337377
0.13824
0.078055
0.0508653
0.035918
0.0267944
0.0210358
0.0159377
0.0133236
0.0106481
0.00985143
0.00931158
0.00937645
0.00935667
0.00955446
0.0117629
0.0135705
0.0146012
0.0132542
0.0146693
0.0145624
0.014194
0.0139871
0.0130378
0.0141803
0.336113
0.136595
0.0773683
0.0502306
0.035766
0.0266493
0.0205613
0.0157488
0.0137508
0.0107445
0.00960102
0.00951472
0.010215
0.0100663
0.0100054
0.0118601
0.0118307
0.0122564
0.0136102
0.0165836
0.0149024
0.0161841
0.0157063
0.0153593
0.0165863
0.0215966
0.0205831
0.0196274
0.0187788
0.01792
0.0170028
0.0159066
0.0146696
0.0131169
0.0115805
0.0105049
0.00949478
0.00825047
0.00863042
0.00959667
0.0111437
0.0130062
0.0156168
0.0177889
0.019856
0.0177009
0.0213902
0.0169693
0.0167812
0.0170235
0.0216205
0.0205249
0.0194625
0.0185346
0.0177228
0.0169668
0.0162986
0.0157791
0.0153556
0.014958
0.0144336
0.0139262
0.0132772
0.0126544
0.0117725
0.0111447
0.0107288
0.0110555
0.0123971
0.0137527
0.0151636
0.0165527
0.0168608
0.0170632
0.0165672
0.338512
0.139356
0.0795746
0.053717
0.0400662
0.0317809
0.0262524
0.0224921
0.0195818
0.0176178
0.0161072
0.0150048
0.0146494
0.0137683
0.0136233
0.0138526
0.014056
0.0145778
0.0148033
0.01475
0.0145121
0.01403
0.0136301
0.0137639
0.0138703
0.33892
0.139819
0.079978
0.0542506
0.0404773
0.0321668
0.026613
0.0228335
0.0200481
0.0179506
0.0162721
0.0148788
0.0139524
0.0129866
0.012125
0.0113649
0.0110946
0.0110854
0.0111501
0.0109698
0.0105004
0.0103197
0.00967695
0.00976167
0.00972925
0.338954
0.139796
0.0798428
0.0541223
0.0405325
0.0321459
0.0265828
0.0227735
0.0199714
0.0178468
0.016097
0.0146875
0.0134908
0.0125964
0.0117179
0.0110252
0.010617
0.0102002
0.00959138
0.00931371
0.00900513
0.00875203
0.00851765
0.00843782
0.00838641
0.33884
0.13968
0.0799624
0.0542287
0.0404181
0.0320428
0.0266457
0.0229041
0.0201188
0.0179469
0.0161303
0.0147691
0.0134661
0.0125948
0.0117752
0.0109103
0.0104091
0.00987764
0.00915402
0.00882434
0.00880141
0.00872634
0.00826764
0.00820237
0.00815296
0.338908
0.139695
0.0797746
0.0540145
0.0403842
0.0320524
0.0266895
0.0229153
0.0202136
0.018031
0.0161774
0.0148331
0.0135011
0.0127294
0.0118802
0.0111263
0.0104472
0.0098919
0.00945268
0.00882835
0.00855382
0.00816263
0.00807674
0.00812019
0.00813546
0.338818
0.139571
0.0799032
0.0540586
0.0403679
0.0320683
0.0267937
0.023048
0.0202456
0.0179647
0.0162055
0.0147316
0.0135574
0.0125842
0.0119596
0.011155
0.0104726
0.00975966
0.00935138
0.00886396
0.00854773
0.00811551
0.00813284
0.0080952
0.00805826
0.338837
0.139529
0.0797617
0.0539179
0.040282
0.0320445
0.0267422
0.0229755
0.0202373
0.0179166
0.0162629
0.0147193
0.0136288
0.0126573
0.0118678
0.0112046
0.0105127
0.00994386
0.00939654
0.00898905
0.00852111
0.0082972
0.00795806
0.00789242
0.00781412
0.338856
0.139679
0.0798438
0.0539535
0.040326
0.0320973
0.0267327
0.0229257
0.0200955
0.017835
0.0161671
0.0147136
0.0136133
0.0126583
0.0119291
0.0112914
0.0105383
0.0100685
0.009467
0.00912664
0.00863127
0.00843275
0.00801898
0.0078472
0.00770251
0.338879
0.139684
0.0798141
0.053997
0.0402415
0.0319748
0.0266302
0.022862
0.0200775
0.0178546
0.0161658
0.0147288
0.0136848
0.0127337
0.0121056
0.0113752
0.0108528
0.0103108
0.00975819
0.00936643
0.00880949
0.008585
0.0080981
0.0079292
0.00777542
0.338936
0.139965
0.0799406
0.053962
0.0402765
0.0320358
0.0266262
0.0227919
0.019952
0.0176842
0.0159355
0.0145764
0.0134979
0.0126326
0.0119897
0.0113632
0.0107811
0.0103059
0.0098519
0.0094815
0.00902067
0.00853143
0.00847183
0.00818871
0.00800301
0.339015
0.140119
0.0800075
0.0541533
0.0404254
0.0319943
0.0263705
0.0224638
0.0195101
0.0172858
0.0155262
0.0141865
0.0132008
0.0124601
0.0119447
0.0113459
0.0108523
0.0103864
0.0100625
0.00976906
0.00934599
0.00884135
0.00894474
0.00852694
0.00833779
0.338974
0.140183
0.0800722
0.0541935
0.0403974
0.0319475
0.0262407
0.022296
0.0194064
0.0170898
0.015391
0.0142579
0.0135286
0.0128725
0.0124302
0.0117642
0.0113488
0.0108217
0.0104848
0.0101749
0.00963778
0.00933834
0.00913938
0.00897324
0.0087718
0.339089
0.140323
0.0800868
0.0541804
0.0404188
0.0318389
0.0259844
0.0217683
0.0188933
0.016613
0.0152849
0.0143173
0.0136336
0.0130421
0.0125286
0.0121308
0.011679
0.0113283
0.0110042
0.0106289
0.0104171
0.00975262
0.00982605
0.00942852
0.00921212
0.339009
0.140314
0.0799752
0.0541196
0.0403198
0.0316567
0.0258048
0.0217498
0.0190756
0.0171678
0.015837
0.0146855
0.0131406
0.0123533
0.0113485
0.0117703
0.0111419
0.0115892
0.0115256
0.0113671
0.0112036
0.0104944
0.0106358
0.0102143
0.00985934
0.339112
0.140359
0.0798371
0.0534685
0.0397689
0.0313889
0.025749
0.021886
0.0191066
0.017183
0.0156308
0.0146534
0.0137521
0.0124086
0.0123902
0.011863
0.0122614
0.0125463
0.0124663
0.0122344
0.0119371
0.0116716
0.0112751
0.010952
0.0103595
0.338964
0.140159
0.0793956
0.053219
0.039721
0.0312857
0.0259508
0.0222256
0.0195973
0.0176415
0.0157467
0.0140314
0.0134019
0.0129335
0.0125492
0.0131289
0.0132009
0.0129453
0.0126379
0.0123686
0.0120439
0.0117647
0.0113285
0.0110939
0.0104035
0.339041
0.140261
0.0793219
0.0530789
0.0395486
0.0311572
0.025889
0.022715
0.0201106
0.017802
0.0163012
0.0154576
0.0150107
0.0146525
0.0143775
0.013955
0.0134958
0.0129616
0.0124753
0.0121094
0.0118202
0.0116155
0.0112583
0.0110771
0.0103975
0.338882
0.139756
0.0793554
0.0532345
0.0396835
0.0312416
0.0259097
0.0222215
0.0198731
0.017788
0.0165581
0.0154907
0.0148405
0.0142935
0.0137543
0.013422
0.0129061
0.0124905
0.0118464
0.0115838
0.0110811
0.0109408
0.0109749
0.0110028
0.0103943
0.338977
0.139832
0.0801169
0.0540087
0.0397862
0.0313164
0.0257401
0.0220502
0.0201657
0.0191367
0.0181252
0.0166299
0.0152751
0.0143423
0.0135768
0.0130026
0.0126301
0.0120232
0.0115299
0.0110587
0.0109146
0.0110284
0.0111776
0.0111543
0.0107029
0.339154
0.14003
0.0806729
0.0546944
0.0401781
0.0317745
0.025936
0.0221664
0.0207562
0.0198447
0.0195863
0.0177582
0.0158025
0.0144425
0.0134694
0.0127776
0.0124154
0.011978
0.0116277
0.0113055
0.0112461
0.0112234
0.0114206
0.0113502
0.0112157
0.339472
0.140461
0.0816636
0.0542706
0.039449
0.0310188
0.0253404
0.021645
0.0199085
0.018762
0.0175266
0.0162046
0.0148485
0.0136686
0.0127702
0.0118406
0.0115894
0.0118696
0.011815
0.0118316
0.0118633
0.0114181
0.0116552
0.0115363
0.0118197
0.339529
0.140555
0.0809521
0.0539844
0.0395723
0.0308928
0.0254826
0.0211015
0.0182815
0.0161628
0.0148632
0.0141237
0.0136954
0.0129301
0.0115884
0.0113235
0.0118985
0.0125447
0.0123265
0.0124662
0.0119616
0.0118521
0.0119166
0.0119965
0.0125884
0.33732
0.138271
0.0798043
0.0535293
0.0401058
0.031737
0.0256256
0.020905
0.0177858
0.0153529
0.0136453
0.0120425
0.0121918
0.0125954
0.0120967
0.0125209
0.0128351
0.0144507
0.0141569
0.0140694
0.0150218
0.015961
0.0162405
0.0161666
0.0169761
0.0215979
0.0205838
0.0194909
0.0188283
0.0178517
0.0168803
0.0159403
0.0152947
0.0142521
0.0133619
0.0127057
0.0127028
0.0130176
0.0135956
0.0141324
0.0146877
0.0151096
0.0182419
0.0201522
0.0198325
0.0212137
0.0215489
0.0243591
0.0219862
0.0213741
0.021627
0.0205116
0.0194369
0.0185459
0.0177985
0.0170692
0.0164265
0.0158105
0.0153104
0.0147887
0.0142988
0.0137836
0.0133523
0.0128159
0.0121303
0.0115491
0.0116173
0.0134449
0.0152779
0.0176718
0.0183562
0.0185193
0.018579
0.0190575
0.0189619
0.338447
0.139243
0.0796033
0.0538785
0.0401993
0.0320957
0.0265288
0.0226005
0.0197864
0.0178592
0.0164071
0.0153265
0.0147187
0.0136568
0.0135721
0.0138772
0.0132922
0.0137926
0.0132842
0.0131989
0.0132467
0.0133018
0.0141523
0.0145629
0.0138778
0.338892
0.139767
0.0800579
0.0543324
0.0407856
0.0325002
0.0270453
0.023307
0.0205066
0.0183819
0.0166906
0.0152862
0.0143042
0.0131864
0.0122348
0.0114895
0.0112367
0.0107393
0.0104491
0.0102472
0.00990316
0.0103236
0.0110971
0.0105624
0.0101863
0.338925
0.139755
0.0799765
0.0542969
0.0406249
0.0324654
0.0270916
0.0232731
0.0204075
0.0182971
0.016428
0.015112
0.0138517
0.0128281
0.0119812
0.0112022
0.0103734
0.0100234
0.009387
0.00913217
0.00917523
0.00878223
0.00872586
0.00917312
0.00866817
0.338827
0.139579
0.0800129
0.0542302
0.0406302
0.0324675
0.0271019
0.0233111
0.0204381
0.0182146
0.016482
0.0149828
0.0138083
0.0128567
0.011953
0.0112
0.0104587
0.0100287
0.00946894
0.00917906
0.00884427
0.00866114
0.00826833
0.00814619
0.00797557
0.338852
0.139515
0.0799314
0.0541334
0.0406543
0.0325124
0.0271222
0.0232081
0.0203471
0.0180909
0.0163669
0.0148708
0.0137764
0.0125936
0.0119274
0.0111435
0.0104027
0.00976405
0.00930144
0.00904704
0.00870825
0.00824549
0.00803664
0.0082378
0.00779246
0.338861
0.139667
0.0798268
0.0541104
0.0406181
0.0325049
0.0271445
0.0232604
0.0203612
0.0181026
0.0162767
0.0148634
0.0135831
0.0126666
0.0117991
0.0110071
0.0104118
0.00966048
0.00919983
0.0088682
0.00872685
0.00820067
0.00798793
0.00811081
0.00765665
0.338953
0.13983
0.0798127
0.0540988
0.0406738
0.032511
0.0270493
0.0231821
0.020271
0.0180124
0.0161524
0.0147868
0.013566
0.0126118
0.0118526
0.0111037
0.0104345
0.00989256
0.00931394
0.00891941
0.00859036
0.00839887
0.00805928
0.00800796
0.00757304
0.338895
0.139878
0.0796578
0.0540784
0.0406182
0.0325111
0.0271057
0.0231939
0.0202983
0.0179351
0.0162073
0.014687
0.0135866
0.0125743
0.0118842
0.0112045
0.0105214
0.0100916
0.0094875
0.00910436
0.00861676
0.00837491
0.00794551
0.00799083
0.0075525
0.33893
0.13982
0.0797128
0.053995
0.0404815
0.0323562
0.0270242
0.0231853
0.0203372
0.0179883
0.0162657
0.0147651
0.013637
0.0126968
0.0118996
0.0113269
0.0107243
0.0103227
0.00981408
0.0093041
0.00896346
0.0083968
0.00810846
0.00810647
0.00767271
0.338828
0.139649
0.0794945
0.0538784
0.0404777
0.0324037
0.0270099
0.0230974
0.0202405
0.0178753
0.0161726
0.0146786
0.0136213
0.0126871
0.012021
0.0114075
0.0109648
0.0106408
0.010207
0.00976951
0.00940489
0.0086823
0.00842377
0.0084471
0.00798735
0.338814
0.139391
0.079378
0.0537109
0.040277
0.0322575
0.0269825
0.0231456
0.0203112
0.0179218
0.0161882
0.0146793
0.0135965
0.0127639
0.0121177
0.01163
0.0112654
0.0109896
0.0105978
0.0102499
0.00985279
0.00917999
0.00922967
0.00881411
0.00853981
0.338747
0.139295
0.0794049
0.0537594
0.0403867
0.0322663
0.0268587
0.0229377
0.0200682
0.0177582
0.0159677
0.0146285
0.0136932
0.0129388
0.0124773
0.0120015
0.0117509
0.0114865
0.0109864
0.0109874
0.0107689
0.0103985
0.010151
0.0100293
0.00926086
0.338778
0.139233
0.0792489
0.0537369
0.0402633
0.0320964
0.0266691
0.0227024
0.0198006
0.0174854
0.0158835
0.0144055
0.0135912
0.0126228
0.0120186
0.0112985
0.0118529
0.0113415
0.0116569
0.0119116
0.0117433
0.0112648
0.011085
0.0108001
0.0100807
0.338815
0.139413
0.0794254
0.0537076
0.0402144
0.0319912
0.0264834
0.0225072
0.0194868
0.0173233
0.0154276
0.0146136
0.0127455
0.0120453
0.0117162
0.0126621
0.0121689
0.0123876
0.0129816
0.0130502
0.0128243
0.0125393
0.0120391
0.0116774
0.0107963
0.338914
0.139527
0.0793569
0.0532469
0.0397155
0.0316116
0.0262696
0.0220609
0.0192192
0.0174758
0.0145286
0.0141796
0.0128465
0.0123584
0.0137445
0.0130157
0.014007
0.0143402
0.0142118
0.0139194
0.0135011
0.0131735
0.0125549
0.0121587
0.0112407
0.338833
0.139519
0.0788216
0.0529698
0.0393751
0.031466
0.0256783
0.0222078
0.0189647
0.017329
0.0146057
0.0135929
0.0129642
0.0144329
0.0136618
0.0147513
0.0151576
0.0149649
0.0145852
0.014181
0.0137107
0.0133904
0.0127496
0.0124538
0.0114082
0.338937
0.139457
0.0788984
0.0522878
0.0390414
0.0310243
0.0249978
0.0218678
0.0197277
0.0162302
0.0148994
0.0139645
0.0152262
0.0141934
0.0152807
0.0157407
0.0156145
0.0152011
0.0147067
0.0142494
0.0138006
0.0134601
0.0127897
0.012464
0.0114865
0.338871
0.139001
0.0788861
0.0533163
0.039254
0.030771
0.0249578
0.0217093
0.0193441
0.0163682
0.016727
0.0144285
0.0155249
0.0158183
0.0154156
0.0150822
0.0147716
0.0144299
0.0140725
0.0136561
0.013381
0.0128908
0.0125564
0.0123417
0.0114244
0.339055
0.13949
0.0802553
0.054153
0.0396939
0.0312373
0.0257594
0.0227341
0.0211473
0.0197307
0.018592
0.0174792
0.0165085
0.0155102
0.0143098
0.0135238
0.0129732
0.0124955
0.0125362
0.0120973
0.0120333
0.0119685
0.0121009
0.0120696
0.0113834
0.339777
0.13962
0.0811935
0.0556943
0.0404837
0.0324165
0.0268773
0.0224968
0.0189866
0.0177651
0.0179696
0.01767
0.0165865
0.0152453
0.01393
0.0128924
0.0122651
0.011472
0.011389
0.0112905
0.0117278
0.0113738
0.0113046
0.0113044
0.0111117
0.340175
0.140982
0.0818465
0.0560991
0.0413096
0.0323079
0.0270593
0.0239648
0.0208605
0.0179455
0.01678
0.0169987
0.0161958
0.0149334
0.0137254
0.0127624
0.0120486
0.0116267
0.0111917
0.0106272
0.0109793
0.0108499
0.010886
0.010993
0.0110468
0.339826
0.141
0.0819051
0.0567639
0.0435974
0.0332635
0.0266001
0.0233831
0.0211791
0.0199818
0.0192116
0.0181511
0.0170975
0.0155945
0.0141346
0.0128546
0.012226
0.0116687
0.0111845
0.0111465
0.0114767
0.0115113
0.0115251
0.0115652
0.0117778
0.336558
0.13691
0.0802342
0.0513267
0.0399941
0.0321013
0.026642
0.0240371
0.0218043
0.0201987
0.0168812
0.0176672
0.0174345
0.0168425
0.0157471
0.0150595
0.0137079
0.0129829
0.0125908
0.013864
0.0145608
0.0154693
0.0155799
0.0155217
0.0159471
0.0215887
0.0205416
0.0195262
0.0185941
0.0175227
0.0135979
0.0124106
0.0129645
0.0150089
0.0161355
0.0179799
0.0179695
0.0183542
0.0189281
0.0187619
0.0186756
0.0183673
0.0191169
0.0190681
0.0191187
0.0190225
0.0200891
0.0251534
0.024752
0.0244182
0.0216377
0.0205011
0.0194771
0.0186024
0.0178646
0.0170673
0.016414
0.0157463
0.0153247
0.0147215
0.0143534
0.0138878
0.0135416
0.0132845
0.0129131
0.0126319
0.0138498
0.0151486
0.0159716
0.0168782
0.0188568
0.0208275
0.0230692
0.025784
0.0262881
0.338406
0.139508
0.0800088
0.0539195
0.0403867
0.0321988
0.0267383
0.0226608
0.0198258
0.0177917
0.0163878
0.0153251
0.0144215
0.0140249
0.0138658
0.0142368
0.0153725
0.0163215
0.0168765
0.0172677
0.0175983
0.0173319
0.0181934
0.0167129
0.0154548
0.339004
0.140102
0.0803825
0.0545882
0.0407487
0.0324001
0.0270032
0.0232711
0.0205031
0.0183631
0.0166264
0.0153074
0.0142205
0.0132601
0.0120647
0.0117365
0.0124322
0.0127963
0.0129563
0.0134369
0.0132107
0.0129812
0.012785
0.0125771
0.0121103
0.338949
0.139875
0.0803287
0.0543641
0.0406327
0.0322766
0.0270199
0.0233257
0.0204942
0.0183603
0.0166388
0.0152859
0.0141945
0.0129751
0.0121966
0.0114943
0.0107982
0.0109604
0.0107915
0.0109288
0.0110407
0.0106851
0.0105539
0.0110076
0.0102723
0.338972
0.139952
0.0802705
0.0542217
0.0404844
0.0323945
0.0270544
0.0232231
0.0204628
0.0182314
0.0165832
0.0150571
0.0140196
0.0128008
0.01188
0.0110658
0.0102508
0.010065
0.00976441
0.00994236
0.00967986
0.00967689
0.00949868
0.00959983
0.00902517
0.339014
0.139997
0.0801046
0.054095
0.0405596
0.0323528
0.0269689
0.0230565
0.0203175
0.0179912
0.0164874
0.014844
0.0138806
0.0126626
0.0117648
0.011042
0.0100386
0.00970282
0.00960384
0.00950602
0.00931146
0.00914425
0.00891595
0.00888981
0.00834819
0.339056
0.140308
0.0800574
0.0542022
0.0406141
0.0325399
0.0270079
0.0230681
0.0202613
0.0180271
0.0163285
0.0148822
0.0136586
0.0126953
0.0117289
0.0110797
0.0103353
0.00983841
0.00958226
0.00902039
0.0087899
0.00873017
0.00849069
0.00845314
0.00795263
0.339131
0.140429
0.0798499
0.0541982
0.0407579
0.0325331
0.027001
0.0230719
0.0202294
0.0179433
0.0162525
0.0147219
0.0136075
0.012634
0.0118941
0.0112158
0.0105474
0.0100207
0.00964367
0.00911445
0.00881393
0.00870235
0.00821135
0.00805475
0.00779422
0.338981
0.140282
0.0799639
0.0543923
0.0408404
0.0325559
0.0270335
0.0230414
0.0201613
0.0178433
0.0161192
0.0146719
0.0135555
0.012624
0.0119365
0.0112644
0.0107281
0.010316
0.00986158
0.00943149
0.00900076
0.00871574
0.0084662
0.00816681
0.00782752
0.339071
0.140354
0.0800889
0.0544552
0.0407744
0.0324019
0.0268592
0.0229184
0.0199982
0.0177416
0.0159703
0.0145924
0.0134872
0.0126889
0.0120923
0.0116477
0.0112619
0.0108706
0.0103879
0.00985532
0.00939581
0.00897975
0.00869494
0.0085613
0.00800481
0.338997
0.140403
0.0802377
0.0544221
0.0408018
0.0324511
0.0268589
0.0229388
0.0199383
0.0176544
0.0158999
0.0145478
0.0134839
0.012798
0.0122881
0.0119904
0.0115969
0.011317
0.0109181
0.0104229
0.0100395
0.00948754
0.008931
0.00872383
0.00841968
0.339162
0.14065
0.0803565
0.054388
0.040562
0.0322877
0.0266873
0.0230444
0.0198199
0.0178393
0.0159041
0.0146533
0.0132858
0.0125134
0.0116251
0.0112301
0.0106194
0.0104499
0.0102395
0.0101145
0.010251
0.0101557
0.0100664
0.00942411
0.00903426
0.339024
0.140488
0.0801754
0.0543232
0.0407042
0.0324338
0.0266772
0.0229263
0.0197191
0.0176382
0.0157423
0.0145504
0.0132676
0.0125372
0.0116608
0.0112967
0.0105372
0.0103373
0.010292
0.0109871
0.0104563
0.0108525
0.0109299
0.0104507
0.00983877
0.339101
0.140439
0.0801307
0.0542559
0.0405461
0.0324116
0.0268206
0.0231593
0.0200715
0.0177198
0.0161644
0.0144963
0.0136106
0.0123617
0.0120007
0.0109535
0.0107525
0.0106042
0.0115969
0.0112094
0.0117921
0.011967
0.0117214
0.0114015
0.0105474
0.338978
0.140182
0.0799847
0.0542267
0.0406452
0.0323202
0.02672
0.0226882
0.0202911
0.0178988
0.0163312
0.0145746
0.013699
0.0123488
0.0118684
0.0115525
0.0128935
0.0120271
0.0129083
0.0132671
0.0131938
0.0130088
0.0124776
0.0120975
0.0111305
0.339023
0.140052
0.0796093
0.0537093
0.0397908
0.032158
0.0267136
0.0227289
0.0197285
0.0184071
0.0154615
0.0143632
0.0136091
0.0150239
0.0134502
0.0145951
0.0152347
0.0150716
0.0148221
0.0144937
0.0140553
0.0136295
0.0130073
0.0124935
0.0115425
0.338867
0.139464
0.0792946
0.05318
0.0399239
0.0311931
0.0263021
0.0213759