/*--------------------------------*- C++ -*----------------------------------*\
  =========                 |
  \\      /  F ield         | OpenFOAM: The Open Source CFD Toolbox
   \\    /   O peration     | Website:  https://openfoam.org
    \\  /    A nd           | Version:  11
     \\/     M anipulation  |
\*---------------------------------------------------------------------------*/
FoamFile
{
    format      ascii;
    class       volScalarField;
    location    "25";
    object      p;
}
// * * * * * * * * * * * * * * * * * * * * * * * * * * * * * * * * * * * * * //

dimensions      [0 2 -2 0 0 0 0];

internalField   nonuniform List<scalar> 
17196
(
0.0665663
0.0738635
0.0480787
0.0149066
0.0524592
0.113097
0.138663
0.0966643
0.00115556
-0.114987
-0.169195
-0.0739612
0.0215778
0.0274597
0.0053003
-0.00714844
0.0387661
0.0461024
-0.00275713
-0.0129282
-0.0113226
-0.0250579
-0.00891567
0.00883256
0.00196231
0.0633244
0.0676621
0.0436812
0.0213349
0.0423759
0.107542
0.157208
0.118006
0.0117326
-0.115836
-0.217276
-0.163179
-0.0366238
0.0481733
0.0612191
0.0422564
0.0506738
0.0501557
-0.0223504
-0.0150085
-0.00255691
-0.0244624
-0.0174842
-0.000122055
0.00131719
0.0610247
0.0636456
0.0470026
0.0258469
0.0268577
0.0929722
0.17071
0.141723
0.0365544
-0.101606
-0.214115
-0.186839
-0.0931002
0.0254704
0.0793912
0.0955789
0.0946839
0.0498689
-0.0433004
-0.0454508
-0.011248
-0.0101568
-0.0131039
-0.00221823
0.00984431
0.0589455
0.062954
0.0453661
0.016509
0.011992
0.0576686
0.143918
0.16381
0.0875987
-0.066416
-0.170997
-0.156646
-0.117947
-0.0387989
0.0339213
0.0910361
0.117387
0.0592261
-0.0326613
-0.0664694
-0.0333791
-0.0149916
-0.0195162
-0.0037789
0.0185862
0.0566284
0.0624979
0.0358375
0.0081912
0.0157953
0.0257009
0.0860832
0.177251
0.159237
-0.0179797
-0.141199
-0.133734
-0.0711337
-0.0774097
-0.0557125
0.0209496
0.0929978
0.0619413
-0.000823901
-0.0374452
-0.0261976
-0.0124022
-0.0197417
-0.0211848
0.0101931
0.0540426
0.0601778
0.0251887
0.0094101
0.0399978
0.0171946
0.03376
0.169975
0.214282
0.0232257
-0.138821
-0.151335
-0.0269541
-0.055725
-0.0971127
-0.0445058
0.0493084
0.0512164
0.0176912
0.00242511
0.00547442
0.0119758
-0.00199676
-0.0330244
0.00165583
0.0512351
0.0571924
0.0147691
0.0121566
0.0733958
0.0256642
0.00752397
0.150059
0.223521
0.0342764
-0.141175
-0.173606
-0.0395285
-0.0224758
-0.066686
-0.0565586
0.000834424
0.0121597
0.00280537
0.0183378
0.0391209
0.0383296
0.01446
-0.0216325
0.000955424
0.0485615
0.0554001
0.00712093
0.012563
0.100249
0.0335548
0.00187929
0.139716
0.195294
0.0176952
-0.125724
-0.148529
-0.0727604
-0.0172665
-0.015767
-0.03603
-0.045029
-0.0389492
-0.0195603
0.0121965
0.0522503
0.0641853
0.0291579
-0.0103659
0.00644077
0.0460071
0.0540743
0.00253664
0.01294
0.104941
0.0272304
0.00101241
0.142322
0.155108
-0.000261386
-0.0896571
-0.0913469
-0.0878307
-0.0295353
0.00751855
-0.0301437
-0.0766361
-0.0656391
-0.0247944
0.00263288
0.0343374
0.0640126
0.0439026
0.0112205
0.0200218
0.0435685
0.0521472
-0.00315247
0.0160525
0.0924322
0.00462067
-0.00178871
0.150891
0.135391
0.0122251
-0.0388201
-0.0391754
-0.0834131
-0.0444742
-0.0144849
-0.0500501
-0.0793115
-0.0485329
-0.0131044
0.00497912
0.0217997
0.0387262
0.0421418
0.036991
0.0319128
0.0413865
0.0513078
-0.00975851
0.0170551
0.081989
-0.019871
-0.00558319
0.159872
0.143901
0.0500158
0.00844764
-0.011028
-0.0719524
-0.0641076
-0.0649649
-0.0683378
-0.0587972
-0.029117
-0.0125658
0.00212822
0.0272729
0.0322274
0.0320038
0.0368359
0.0277724
0.0396613
0.0500819
-0.017236
0.0145114
0.0770734
-0.0360074
-0.0116725
0.163715
0.167765
0.0886831
0.0330288
-0.0148598
-0.0671668
-0.0846495
-0.107361
-0.0697436
-0.0339403
-0.0305959
-0.0460366
-0.0220396
0.0372396
0.0533463
0.0310636
0.0358062
0.0216221
0.0387231
0.0502288
-0.0202969
0.00547253
0.0676788
-0.0320377
-0.0172221
0.160874
0.195241
0.119409
0.0392525
-0.0367817
-0.0699648
-0.093869
-0.0956363
-0.0485844
-0.0187004
-0.0376417
-0.0786519
-0.0616895
0.0228495
0.074182
0.0465873
0.0324792
0.0149369
0.0386702
0.0511161
-0.0190322
-0.00586731
0.0480246
-0.0189179
-0.0267314
0.145258
0.216809
0.143203
0.0368434
-0.0578065
-0.0785705
-0.0795486
-0.0476144
-0.0216293
-0.0209455
-0.0435482
-0.0843909
-0.0909166
-0.0184828
0.0725104
0.0563731
0.0225884
0.0164404
0.0397099
0.053606
-0.00710413
-0.00497053
0.02367
-0.00783806
-0.0257602
0.12211
0.233198
0.172256
0.0437604
-0.0571843
-0.0758295
-0.05211
0.00206483
0.000877178
-0.0283544
-0.0411997
-0.0627913
-0.0963955
-0.0743874
0.0342647
0.0522512
0.00302501
0.0152335
0.0413824
0.055863
0.00300833
0.00573194
0.0150685
0.00502178
-0.0217823
0.0851018
0.226127
0.197538
0.0657266
-0.0331223
-0.0650395
-0.0295792
0.024157
0.00545944
-0.0381787
-0.0410968
-0.0428994
-0.0917782
-0.132891
-0.0352821
0.0329363
-0.0428115
0.0101542
0.043578
0.0592532
0.0100378
0.0118162
0.02662
0.034751
-0.00265423
0.0587528
0.196943
0.206486
0.0933166
0.00234684
-0.0452941
-0.0144044
0.0199117
-0.00830936
-0.0510135
-0.0562738
-0.0506809
-0.0825132
-0.14996
-0.101389
0.00725172
-0.0513997
0.00511783
0.0457048
0.062822
0.0140546
0.00894381
0.055283
0.0581129
0.00699576
0.0354742
0.148345
0.180993
0.10047
0.0172563
-0.026409
-0.00480567
0.000182907
-0.0369913
-0.0744979
-0.084494
-0.0804323
-0.0802543
-0.127163
-0.1329
-0.022575
-0.0248222
0.00580168
0.0476635
0.0674015
0.0183505
0.0181467
0.101305
0.0670031
-0.0016326
0.0158147
0.101139
0.139515
0.0882947
0.0099492
-0.0105022
0.00953874
-0.0149321
-0.0605373
-0.0909638
-0.0968922
-0.0963524
-0.0800511
-0.0951213
-0.122964
-0.0475283
-0.00425416
0.0112807
0.0486405
0.0700627
0.0241361
0.0374545
0.135292
0.0824176
0.00890941
0.0248539
0.0785597
0.104024
0.0618307
-0.0107791
-0.000821862
0.0181633
-0.0310422
-0.0795592
-0.0965499
-0.0912419
-0.0906218
-0.0794943
-0.0756409
-0.0963345
-0.059211
-0.00807861
0.0576409
0.0486507
0.0673628
0.0269704
0.0569105
0.14598
0.101536
0.0407561
0.0558753
0.0790709
0.0871434
0.0417044
-0.0113498
0.00993863
0.0152287
-0.051298
-0.0914168
-0.0914355
-0.0764983
-0.0779654
-0.082371
-0.0731722
-0.0741852
-0.0562395
-0.0142186
0.119243
0.0485523
0.0599787
0.0219896
0.0755653
0.150841
0.12063
0.0619847
0.0641635
0.0819222
0.0853295
0.0409016
-0.0134499
0.00609908
0.00113901
-0.0654699
-0.0969151
-0.0888534
-0.0663137
-0.0696811
-0.0814339
-0.0671938
-0.0547
-0.0478967
-0.0259515
-0.124849
0.0498096
0.0572129
-0.00181103
0.0567689
0.141245
0.126472
0.0784265
0.0725784
0.0993828
0.0999462
0.0522506
-0.00966885
-0.00461735
-0.0126308
-0.0731042
-0.108244
-0.0952458
-0.0692442
-0.0695759
-0.0732264
-0.0376135
-0.0319112
-0.0562429
-0.0275439
-0.0508382
0.0522434
0.0690031
-0.00298864
0.0231073
0.104434
0.118235
0.0990613
0.0981635
0.126163
0.125796
0.0815772
0.00759062
-0.0106921
-0.0258326
-0.0843226
-0.12
-0.0864387
-0.0557789
-0.0506392
-0.0375007
-0.0138039
-0.0305981
-0.0709366
-0.0323575
0.00182563
0.0530127
0.0726356
0.0283425
0.0259314
0.0769786
0.0984885
0.0947047
0.100383
0.125587
0.129905
0.0959452
0.0132148
-0.0321534
-0.0580037
-0.116015
-0.137065
-0.0789994
-0.0176326
0.000852619
-0.00444653
-0.04079
-0.0819115
-0.11033
-0.0519351
-0.0026873
0.0637197
0.0567839
0.023144
0.0145386
0.0785595
0.121206
0.0573568
-0.0333049
-0.0766067
-0.10978
-0.0458926
0.0498657
0.0135978
0.00100249
0.00102474
-0.00711309
-0.0167769
-0.0310041
-0.033614
-0.0129414
-0.0174146
-0.0412417
-0.0304294
0.00789203
0.00246119
0.0603507
0.047145
0.00803647
0.0104125
0.0854972
0.151836
0.0890833
-0.0200735
-0.0797335
-0.129259
-0.108746
-0.0181021
-0.0106448
0.0300236
0.0358701
0.0246434
0.00829487
-0.0489973
-0.0651363
-0.00776772
0.00244877
-0.0298132
-0.0307737
-0.0121463
-0.00642927
0.0584281
0.0476746
0.00177584
0.00884868
0.0775343
0.140014
0.112119
0.0192197
-0.0484192
-0.0947388
-0.0995509
-0.0565227
-0.0517429
-0.00050822
0.0273812
0.0667524
0.0696994
-0.0357852
-0.085827
-0.0237754
0.0117874
-0.0190587
-0.0251528
-0.0102128
-0.00161891
0.0564253
0.0467205
-0.00513425
0.00664218
0.0634681
0.111766
0.11572
0.0495378
-0.0136387
-0.0516007
-0.0740147
-0.065264
-0.0906643
-0.090446
-0.0274774
0.061668
0.0972786
0.0118526
-0.0580302
-0.0348899
-0.00315546
-0.0233654
-0.0433726
-0.0295509
0.000546492
0.0539259
0.0426786
-0.00929061
0.0152038
0.0709404
0.108087
0.100503
0.0414588
0.0028743
-0.00697873
-0.0437179
-0.0694375
-0.0766722
-0.115741
-0.0854535
0.00137694
0.083661
0.0607669
-0.0132363
-0.0210726
0.00213814
-0.00874228
-0.0432555
-0.0512252
0.00386987
0.0509511
0.0383365
-0.0168719
0.0318288
0.0949529
0.0980782
0.0527397
0.01185
0.0304322
0.0456012
-0.000429213
-0.073698
-0.0580945
-0.0966081
-0.123315
-0.0713124
0.048367
0.0750608
0.00716901
-0.0040449
0.0137693
-0.000459362
-0.0332911
-0.0509252
-0.00390246
0.0476383
0.0341313
-0.0280971
0.0457081
0.122752
0.0719652
-0.010236
0.00372717
0.0927939
0.0991135
0.0345239
-0.0711948
-0.0788305
-0.0793517
-0.132035
-0.119067
-0.000304009
0.0555348
0.0104663
-0.00199462
0.0173972
0.00502244
-0.0232646
-0.0369399
-0.011276
0.0441564
0.0309453
-0.0386381
0.0478823
0.141343
0.0495402
-0.0487889
0.0272781
0.157358
0.130607
0.0379912
-0.0670655
-0.121284
-0.0820493
-0.117616
-0.121553
-0.0460107
0.0285966
0.0304875
0.0073906
0.00349372
0.00926359
-0.0113813
-0.0246303
-0.011615
0.0404422
0.0285591
-0.0493979
0.0399079
0.137978
0.0374309
-0.0497788
0.067563
0.197291
0.132509
0.0189897
-0.0674319
-0.141531
-0.100276
-0.0776945
-0.0928508
-0.0792132
-0.00844817
0.0485254
0.0496367
0.00944955
-0.00180074
-0.0115574
-0.0136982
-0.0084654
0.0365931
0.0270312
-0.063543
0.0299452
0.121361
0.0333651
-0.0237223
0.113757
0.212648
0.119338
0.00576382
-0.06515
-0.13261
-0.122993
-0.0551793
-0.0813941
-0.0993992
-0.0462334
0.0272517
0.0776528
0.0738026
0.0216428
-0.0167457
-0.00775823
-0.00759315
0.032436
0.023789
-0.0731278
0.026378
0.100565
0.0238628
0.0103175
0.158588
0.216602
0.112362
0.011355
-0.0585691
-0.124921
-0.142023
-0.0904795
-0.0968733
-0.099591
-0.0733159
-0.0373263
0.0463177
0.1135
0.0649666
0.0131905
0.0103772
-0.010526
0.0281471
0.018686
-0.0734397
0.0275171
0.0755785
0.00613576
0.0450763
0.201237
0.220327
0.110717
0.0161142
-0.0615419
-0.130339
-0.162682
-0.129632
-0.101147
-0.0860357
-0.0997657
-0.119977
-0.0273744
0.0941228
0.0796192
0.0509916
0.0477658
-0.00189072
0.0241394
0.0129205
-0.0682358
0.0304035
0.0480978
-0.019213
0.0683133
0.231009
0.219883
0.0940532
-0.0027005
-0.0808418
-0.137118
-0.165533
-0.130251
-0.0814078
-0.0627657
-0.0888799
-0.138052
-0.0783697
0.0396655
0.05993
0.0640144
0.0693524
0.0183947
0.0207701
0.00967446
-0.0608329
0.032437
0.0202479
-0.0545992
0.0582099
0.238459
0.218513
0.068567
-0.0325848
-0.0972615
-0.124322
-0.136988
-0.0944368
-0.0471245
-0.0361548
-0.0472583
-0.0932379
-0.105787
-0.0324997
0.0264497
0.052398
0.0626168
0.0317622
0.0181937
0.0115334
-0.0548051
0.0381717
-0.00262055
-0.100393
0.000603945
0.209524
0.218809
0.0679923
-0.0341422
-0.0838988
-0.0828201
-0.081765
-0.0460993
-0.0189186
-0.0148441
-0.00988729
-0.0301267
-0.0917329
-0.0838449
-0.0186995
0.0330927
0.0341815
0.0377452
0.0156998
0.0129306
-0.0460945
0.0520008
-0.0102344
-0.149424
-0.0866413
0.126138
0.222517
0.126441
0.0175272
-0.0400952
-0.0368045
-0.0286905
-0.0145999
-0.0170043
-0.020914
-0.015248
-0.00598201
-0.0543798
-0.09245
-0.0669487
0.00165478
0.00327893
0.0384495
0.0126765
0.0120224
-0.0406663
0.0554654
0.00860217
-0.154494
-0.157313
0.0116448
0.220658
0.224539
0.105361
0.0188721
0.000194726
0.00241135
-0.00486241
-0.0233736
-0.0368701
-0.0508168
-0.0406773
-0.0483001
-0.07732
-0.0899936
-0.0370107
-0.00711036
0.0297334
0.00871521
0.00841349
-0.050919
0.0290547
0.0394404
-0.0820011
-0.180608
-0.0817457
0.197486
0.281123
0.164847
0.058511
0.0152167
0.00654984
-0.0149508
-0.0336927
-0.0499242
-0.0799086
-0.0927011
-0.079756
-0.0759046
-0.098176
-0.0699676
-0.0192478
0.0134175
0.00361167
0.00505277
-0.0751669
-0.01091
0.0653501
-0.00232001
-0.160455
-0.0960042
0.175561
0.270093
0.167912
0.0698002
0.0198959
0.00669583
-0.0271343
-0.046548
-0.0613615
-0.0874345
-0.119687
-0.116319
-0.094884
-0.10194
-0.0734667
-0.00759784
0.00139233
-0.00259187
0.000137251
-0.113438
-0.0492256
0.091774
0.0497914
-0.0965967
-0.0315327
0.157406
0.201528
0.119003
0.0489649
0.0203033
0.00673637
-0.0369174
-0.0641632
-0.0746876
-0.0812265
-0.115088
-0.135853
-0.120489
-0.110775
-0.065308
0.0233303
-0.0528751
-0.00943063
-0.00635988
-0.162516
-0.0596393
0.147155
0.121405
0.00977605
0.0535702
0.131734
0.117208
0.0446491
0.0101413
0.0183451
-0.00579358
-0.0610531
-0.0899811
-0.0854751
-0.0685301
-0.0928869
-0.12865
-0.135698
-0.126169
-0.0670478
0.0449027
-0.206356
-0.0148605
-0.0172927
-0.205306
-0.0116249
0.236221
0.183324
0.0779254
0.0779811
0.0977892
0.0517382
-0.0151803
-0.018864
0.00464286
-0.0302689
-0.100052
-0.123421
-0.0990184
-0.0680425
-0.0800594
-0.102932
-0.119081
-0.121622
-0.0466332
0.0720285
-0.125437
-0.0168247
-0.0259794
-0.238898
0.0143923
0.322048
0.248656
0.1148
0.078902
0.0901938
0.0473814
-0.0142551
-0.0223414
-0.0163518
-0.0518026
-0.122543
-0.143065
-0.111267
-0.0791712
-0.0806183
-0.0798476
-0.0735392
-0.0852717
-0.0104984
0.11478
0.20102
-0.0142696
-0.0128689
-0.218213
-0.0470134
0.280164
0.261817
0.148726
0.113517
0.123511
0.101328
0.0430775
-0.00305502
-0.0316405
-0.0526837
-0.101105
-0.116313
-0.0886913
-0.0664076
-0.062222
-0.0470264
-0.0196525
-0.0416928
-0.0110444
0.0961241
0.115973
-0.00755585
0.00443566
-0.118841
-0.0537522
0.198189
0.223271
0.143664
0.114841
0.10991
0.101631
0.0593634
-0.00676305
-0.0577765
-0.0658395
-0.0801082
-0.075245
-0.0537076
-0.0442984
-0.0414066
-0.03663
-0.0280466
-0.0625509
-0.0766825
0.00719241
0.0483586
0.0702722
0.067698
0.0505902
0.0909635
0.155563
0.124663
0.00173731
-0.0812611
-0.0731627
-0.0408071
0.057085
0.0482219
-0.0463168
-0.0265344
0.0181744
0.0475027
0.00593731
-0.0798268
-0.125342
-0.0481524
0.0250431
0.0142576
0.000113542
0.11266
0.0502651
0.0677688
0.0647734
0.029207
0.0876168
0.178863
0.147317
0.00896038
-0.0818062
-0.0743777
-0.0630951
-0.00152574
0.00711827
-0.0238958
0.0141207
0.0327734
0.0618269
0.0308308
-0.067811
-0.0960103
-0.0460932
-0.00254185
-0.00261968
-0.0104403
0.0834079
0.0395124
0.0663408
0.0667327
0.0215346
0.0789592
0.178074
0.1551
0.0177093
-0.0913406
-0.0945051
-0.0666021
-0.00389966
0.0208779
0.00604516
0.028172
0.0168717
0.0533918
0.0320845
-0.0692962
-0.0643071
-0.0196192
-0.0134444
-0.0218175
-0.00920811
0.0599014
0.0075538
0.0650114
0.0678222
0.0220249
0.0691841
0.174952
0.159561
0.0203208
-0.0916823
-0.0930726
-0.0572657
-0.00310784
0.0278056
-0.00711242
-0.0417147
-0.0591619
0.00220513
0.0428008
-0.0133549
-0.0260842
-0.00348098
-0.021169
-0.0422404
-0.0269898
0.0114487
-0.0185762
0.0631966
0.067848
0.0195819
0.0726915
0.184556
0.15749
-0.00225812
-0.110737
-0.0923039
-0.0462595
0.00748019
0.0108869
-0.0288362
-0.0708177
-0.0941236
-0.0349451
0.0673151
0.0715588
0.0193768
-0.00159048
-0.0215087
-0.0305614
-0.0233321
-0.0132156
-0.00931424
0.0608807
0.0688892
0.00491853
0.0827386
0.191414
0.13413
-0.0470921
-0.135633
-0.0816107
-0.0130689
0.0334441
-0.00212451
-0.0418098
-0.060932
-0.0922242
-0.0424884
0.0775304
0.116509
0.0515112
-0.0183628
-0.0555255
-0.0355719
-0.0106355
-0.00834378
0.00208271
0.0576745
0.0687384
-0.0196662
0.0990839
0.202454
0.0990446
-0.091189
-0.126596
-0.0342516
0.0423003
0.0609015
-0.000527246
-0.0522323
-0.0512455
-0.0738137
-0.0579669
0.0513252
0.114107
0.0779934
-0.0325808
-0.113514
-0.0571473
-0.00655891
0.00817386
0.00696387
0.0536503
0.066177
-0.037768
0.113052
0.213818
0.0671341
-0.120828
-0.0993966
0.0307345
0.082428
0.0526013
-0.00743137
-0.062186
-0.0449696
-0.054237
-0.0937839
-0.0104253
0.077138
0.0842786
-0.00649113
-0.13329
-0.0733131
-0.00420161
0.0259365
0.0109338
0.0488418
0.0592393
-0.0426665
0.117498
0.216671
0.045459
-0.130257
-0.0701472
0.079126
0.0883781
0.0186487
-0.028023
-0.0484195
-0.0332447
-0.0448984
-0.106881
-0.0535138
0.0332434
0.0678052
0.0504871
-0.10395
-0.0844948
-0.0032014
0.0312581
0.013229
0.0430766
0.0499561
-0.0455801
0.11605
0.21127
0.0328446
-0.124149
-0.0421281
0.102934
0.0761387
0.00326689
-0.0358106
-0.0311481
-0.0248745
-0.0378769
-0.108514
-0.080256
-0.0153229
0.0276017
0.0925666
-0.0460276
-0.109867
-0.0264496
0.0240496
0.0168998
0.0368786
0.0385965
-0.0497154
0.116645
0.199403
0.0255663
-0.103146
-0.00698347
0.119466
0.0729895
0.0162008
-0.0130717
-0.0198109
-0.03208
-0.0301762
-0.0987003
-0.0969724
-0.0499325
-0.0306377
0.0816107
0.0271631
-0.106673
-0.0514544
0.0180883
0.024036
0.0300447
0.0256291
-0.0554757
0.112529
0.186584
0.0293684
-0.064288
0.0396219
0.134094
0.0780627
0.0336929
0.0118886
-0.0265828
-0.0663083
-0.0458223
-0.0959525
-0.113445
-0.075826
-0.0730508
0.0317087
0.0734879
-0.0384751
-0.00868931
0.0264936
0.0307582
0.0235023
0.0186658
-0.0593121
0.090326
0.170344
0.0550569
-0.00219831
0.0901497
0.140818
0.0792101
0.036442
0.0131127
-0.0527455
-0.104342
-0.089514
-0.109684
-0.115565
-0.0854823
-0.0854203
0.00567805
0.0778887
0.0211492
0.0438176
0.0281673
0.0340851
0.0167302
0.00890507
-0.0602148
0.0661949
0.142004
0.0867517
0.0788722
0.144003
0.150852
0.0722883
0.00808108
-0.0173484
-0.0761118
-0.114935
-0.112715
-0.107543
-0.0938255
-0.0528457
-0.0690186
-0.0253324
0.0722555
0.0619595
0.0624692
0.0383825
0.0375353
0.00999398
0.00111111
-0.0617927
0.0656696
0.114685
0.0862338
0.129299
0.182837
0.162132
0.0634802
-0.0355185
-0.0567469
-0.072609
-0.0899696
-0.11162
-0.108902
-0.0851181
-0.0199504
-0.0182247
-0.0305865
0.0537175
0.0821932
0.0658635
0.0413626
0.040539
0.003324
-0.00230279
-0.0700633
0.076661
0.114572
0.0633185
0.113645
0.172581
0.174934
0.0830446
-0.0504374
-0.076813
-0.0546451
-0.0569643
-0.095844
-0.113776
-0.0989429
-0.0265505
0.00126835
-0.0132577
0.0418146
0.0811258
0.0643891
0.0425733
0.0445762
-0.00415004
-0.00790637
-0.0804525
0.0792223
0.12568
0.056036
0.0625951
0.122129
0.188961
0.138639
-0.0113
-0.0611828
-0.0359303
-0.0330535
-0.0699084
-0.0942858
-0.0920208
-0.0564802
-0.0368236
-0.0290205
0.0333276
0.0746095
0.040994
0.0373052
0.0474644
-0.0126499
-0.0137288
-0.0992564
0.0601907
0.137133
0.0805914
0.0242093
0.0569078
0.179233
0.188861
0.0482816
-0.035751
-0.0381518
-0.0365
-0.05096
-0.0624926
-0.0606158
-0.0637328
-0.076848
-0.0680693
-0.000991171
0.0440383
-0.00285978
0.0235382
0.0500394
-0.0231076
-0.0177043
-0.136223
0.0154433
0.162056
0.156835
0.0394967
0.0212575
0.140689
0.199068
0.0978752
-0.00879585
-0.0432891
-0.0391877
-0.0256611
-0.032278
-0.0421844
-0.0586438
-0.0925401
-0.108288
-0.0626638
-0.00496365
-0.0302641
0.023198
0.0556583
-0.0354619
-0.0290035
-0.19842
-0.0568816
0.203849
0.269687
0.106312
0.0231576
0.084854
0.159247
0.114958
0.0181283
-0.0283653
-0.0186095
-0.00445616
-0.0231849
-0.0572826
-0.072009
-0.099177
-0.129713
-0.11702
-0.0487713
-0.0314351
0.0271856
0.057267
-0.0487799
-0.050373
-0.290802
-0.122041
0.271969
0.357878
0.156957
0.0309101
0.0390654
0.0888266
0.0853461
0.0283385
-0.0124311
-0.0056217
-0.0104971
-0.0449204
-0.0799885
-0.0822935
-0.0926197
-0.117358
-0.126813
-0.0809484
-0.0357277
0.0166916
0.0282146
-0.0580457
-0.0753014
-0.38927
-0.124229
0.391584
0.394462
0.158027
0.0444131
0.020089
0.015664
0.0270512
0.0183244
-0.0179169
-0.0270367
-0.0403218
-0.0683003
-0.079173
-0.0685584
-0.0658208
-0.0777819
-0.0988475
-0.09828
-0.0428886
0.025416
0.0987768
-0.0594492
-0.0776554
-0.451667
-0.142644
0.487499
0.419788
0.158331
0.0527426
0.0108966
-0.0307673
-0.0208711
-0.00294154
-0.0374051
-0.0556693
-0.0628174
-0.0739017
-0.068318
-0.0518514
-0.0407364
-0.037628
-0.0565027
-0.0785533
-0.00799455
0.0876564
0.13843
-0.0525576
-0.0491263
-0.421237
-0.22115
0.426272
0.41181
0.165061
0.0537917
0.0182453
-0.0109905
-0.0275788
-0.0142587
-0.0312046
-0.037039
-0.0302403
-0.0419612
-0.0482733
-0.0424172
-0.0328308
-0.0236358
-0.0369009
-0.0428119
0.0360325
0.1372
0.0987503
-0.0401184
-0.024878
-0.279307
-0.199244
0.306576
0.351276
0.130224
0.0199534
-0.00358207
-0.0128384
-0.0541622
-0.0547256
-0.0360828
-0.004544
0.0157868
0.00179049
-0.0210572
-0.0309593
-0.0318183
-0.0344489
-0.050917
-0.0475654
0.00430522
0.0723382
0.0537979
0.0777179
0.0794839
0.0522368
0.0776437
0.112237
0.075472
-0.000850304
-0.0570902
-0.0695673
-0.0534059
0.00264917
-0.0518336
-0.0839153
-0.0503703
0.00580276
0.0577502
0.00525015
-0.0873088
-0.140627
-0.0811571
-0.00410182
-0.0149832
-0.0395993
0.00738925
-0.0493839
0.0750643
0.0758131
0.031338
0.0796066
0.138344
0.0824349
-0.0184837
-0.0870511
-0.0754039
-0.0449681
-0.0195207
-0.0688961
-0.0868759
-0.0409343
0.008941
0.0834382
0.049219
-0.0227324
-0.101253
-0.100523
-0.0451391
-0.0325988
-0.0390819
0.0467099
-0.0534976
0.0734049
0.0751608
0.017483
0.0823234
0.16898
0.0898748
-0.0462294
-0.119252
-0.0826553
-0.0384909
0.0108153
-0.0217791
-0.0537231
-0.0218249
-0.00978189
0.0786168
0.0644425
-0.0131687
-0.0964641
-0.117254
-0.0743953
-0.0347725
-0.0163193
0.0566236
-0.0940796
0.0719695
0.0763561
0.00715302
0.0865036
0.182415
0.0752516
-0.0901448
-0.112023
-0.0450316
-0.0101475
0.0321315
0.00501236
-0.0478127
-0.0449582
-0.0762446
0.0161529
0.0703804
0.01252
-0.105645
-0.139706
-0.0962044
-0.0347995
-0.0018881
0.0450989
-0.0259303
0.0700594
0.0800445
-0.00990168
0.0957525
0.182071
0.059006
-0.112195
-0.0762357
0.0138118
0.00216613
0.0137216
0.0132784
-0.0450727
-0.0668155
-0.110111
-0.0415356
0.0876838
0.0693247
-0.106919
-0.171252
-0.107491
-0.0187649
0.0140259
0.0119728
0.0288641
0.0670448
0.0797868
-0.0230623
0.110415
0.171431
0.0451108
-0.124935
-0.0628975
0.0394062
-0.000938644
-0.0167938
0.00391308
-0.0343203
-0.0656863
-0.0968915
-0.064144
0.0784086
0.0923225
-0.0895971
-0.191612
-0.128199
-0.0119589
0.0272366
-0.00609502
0.0288245
0.0627657
0.0711371
-0.0194867
0.123533
0.154882
0.0268599
-0.125766
-0.0584797
0.0576329
0.0264119
-0.0106723
-0.00222082
-0.0289843
-0.0613646
-0.0834663
-0.0838926
0.0402091
0.0702521
-0.0585802
-0.187034
-0.162816
-0.0288915
0.0345311
0.00898162
0.0232989
0.0577417
0.0604799
-0.00293184
0.119214
0.142446
0.00833859
-0.121468
-0.0528055
0.0719288
0.0640942
0.012018
-0.0109872
-0.041032
-0.064582
-0.0851424
-0.12474
0.00724735
0.0409251
-0.0315982
-0.147351
-0.170023
-0.0603722
0.0371306
0.0330497
0.0325516
0.0525749
0.0539679
0.0124356
0.103932
0.137408
-0.00728721
-0.12281
-0.0478713
0.0715007
0.077888
0.0234739
-0.0120535
-0.0365142
-0.0546681
-0.0915368
-0.168455
-0.0345276
0.0216251
-0.00332593
-0.0828518
-0.147508
-0.0792601
0.0238885
0.0538417
0.044989
0.0473842
0.0514738
0.0129894
0.104031
0.12962
-0.0272184
-0.127995
-0.0370573
0.0772539
0.078045
0.025539
-0.00384416
-0.018453
-0.0317176
-0.0812792
-0.1864
-0.0833974
-0.0108118
-0.00719205
-0.0204175
-0.0982228
-0.0753451
0.0155785
0.0571564
0.0433707
0.0418268
0.0528944
0.00262122
0.110745
0.115435
-0.0596568
-0.130485
-0.0119558
0.103864
0.0845091
0.0211786
0.00944564
0.00362711
-0.0370606
-0.0863084
-0.192397
-0.0884511
0.00603823
-0.038996
-0.0101517
-0.0299029
-0.045845
0.0169789
0.036256
0.0357434
0.0358648
0.0545639
-0.00967177
0.108099
0.105739
-0.0842806
-0.125937
0.0196883
0.134364
0.0916471
0.0134102
0.0233045
0.0121984
-0.0592164
-0.117299
-0.218589
-0.128588
0.0272426
-0.0386219
-0.0341083
0.00672876
-0.0140082
0.0249673
0.0213508
0.0311473
0.0290054
0.052946
-0.0260075
0.0825764
0.0939497
-0.0717397
-0.0915176
0.0469097
0.139107
0.0849554
0.0226005
0.0379814
-0.00682028
-0.0721061
-0.116163
-0.201512
-0.16833
-0.0202516
-0.0334097
-0.0530075
0.0301408
0.0368072
0.0333549
0.00612125
0.0264632
0.0208103
0.0475615
-0.036778
0.0494513
0.0784028
-0.0203079
-0.0167643
0.077345
0.126257
0.0720847
0.0289907
0.033557
-0.0315615
-0.075472
-0.109231
-0.163791
-0.173555
-0.0717999
-0.0489529
-0.0788374
0.0422285
0.0866451
0.042029
-0.00017414
0.0311604
0.0111906
0.0326426
-0.0587535
0.039984
0.0821851
0.0399621
0.0669951
0.112929
0.118948
0.0602546
-0.00092436
-0.00916557
-0.0475881
-0.0717557
-0.116796
-0.152343
-0.188955
-0.107104
-0.0553677
-0.0824467
0.0268674
0.0975449
0.0384514
0.0102541
0.0411609
0.000412959
0.0192299
-0.0867893
0.0343391
0.089653
0.0854538
0.131127
0.151545
0.117253
0.0335942
-0.0581899
-0.0657565
-0.0496578
-0.0545208
-0.0844137
-0.140001
-0.207555
-0.113305
-0.0611048
-0.0776061
-0.00307798
0.0743195
0.0323474
0.0353837
0.0511967
-0.0113763
0.00898195
-0.097873
0.0241689
0.0781696
0.0909912
0.171345
0.195658
0.124214
0.010447
-0.0936447
-0.0890197
-0.0315988
-0.0227744
-0.036423
-0.0988821
-0.177213
-0.112377
-0.0742514
-0.0742886
-0.0226986
0.0656532
0.0473462
0.0477734
0.0609698
-0.0256382
-0.00701634
-0.106695
0.0140816
0.0629485
0.107322
0.210852
0.216496
0.114451
-0.0047227
-0.0927574
-0.0861284
-0.0234736
-0.00663119
-0.0178512
-0.0466553
-0.0979437
-0.0956009
-0.0925608
-0.0834096
-0.034277
0.0525887
0.043878
0.0501563
0.0758386
-0.0427741
-0.0250637
-0.144086
-0.0344679
0.103112
0.229812
0.277135
0.178095
0.0448194
-0.0259488
-0.069579
-0.0755385
-0.0232687
-0.00267448
-0.00424262
-0.00910134
-0.0318336
-0.0740573
-0.0978559
-0.093974
-0.0517305
0.0172545
0.0211416
0.0448446
0.0906581
-0.0625158
-0.0543513
-0.238526
-0.136471
0.228169
0.457472
0.332865
0.0770497
-0.0535881
-0.0498786
-0.0463133
-0.0581732
-0.0134911
0.0128634
0.0214051
0.00556438
-0.0257425
-0.0672054
-0.0937578
-0.100907
-0.0812824
-0.0226069
0.0132049
0.0370132
0.0904951
-0.0818218
-0.102036
-0.393467
-0.27985
0.385017
0.642214
0.296039
-0.0248696
-0.0931638
-0.0551111
-0.042044
-0.0396852
-0.00380066
0.0289334
0.0271069
-0.0129188
-0.0495006
-0.0595596
-0.0716633
-0.0918108
-0.0989993
-0.0492511
0.0115517
0.0283057
0.0785951
-0.0919259
-0.147569
-0.54167
-0.369348
0.492629
0.672615
0.211613
-0.0563009
-0.0859914
-0.0526371
-0.0437007
-0.0405622
-0.0157975
0.0149052
0.0111035
-0.0347183
-0.0594697
-0.0422875
-0.0381563
-0.06709
-0.0971752
-0.0689984
-0.00889283
0.0160669
0.0775698
-0.0872952
-0.128271
-0.576444
-0.417763
0.47481
0.613407
0.188783
-0.022258
-0.0843856
-0.0612833
-0.0329974
-0.03653
-0.0281478
-0.00231539
0.00623423
-0.0248135
-0.0439565
-0.0296564
-0.0201803
-0.0392379
-0.0763933
-0.0775266
-0.0180028
0.0426529
0.0796113
-0.0721881
-0.0544544
-0.456895
-0.462673
0.286396
0.515481
0.244964
0.0578444
-0.0407529
-0.0520284
-0.0294199
-0.016972
-0.00203598
0.0204817
0.0279399
0.00436251
-0.027494
-0.0417034
-0.0432882
-0.0497338
-0.0844203
-0.0957474
-0.000108637
0.102746
0.0766418
-0.0525147
-0.0225089
-0.302079
-0.361554
0.170546
0.472812
0.293957
0.0907797
-0.00863887
-0.0476927
-0.0696797
-0.0329078
0.022413
0.0526989
0.0506322
0.0252817
-0.0101214
-0.0350399
-0.0445303
-0.0611974
-0.105668
-0.112866
-0.00102525
0.0755115
0.0431298
0.0828161
0.0817257
0.0414103
0.0630334
0.123684
0.127818
0.0692358
-0.0213468
-0.0766681
-0.0315741
0.0146231
-0.0827182
-0.107509
-0.0412927
0.0197444
0.0768729
0.0446151
-0.058665
-0.141921
-0.125083
-0.0758311
-0.0826003
-0.106479
-0.0988468
0.00763941
0.0796178
0.0736226
0.0237183
0.0675028
0.148709
0.146672
0.0521447
-0.0714782
-0.112325
-0.0274494
0.0222704
-0.0676865
-0.119582
-0.065289
0.0201813
0.106013
0.0576778
-0.0366221
-0.106541
-0.108909
-0.0769986
-0.0916535
-0.105154
-0.0211645
0.0604428
0.0776145
0.0710277
0.00261403
0.0865498
0.201347
0.158337
-0.0119122
-0.104749
-0.0865515
-0.0150182
0.0460416
-0.0209147
-0.0970882
-0.0762651
0.00369176
0.100906
0.0314136
-0.073527
-0.109973
-0.0911506
-0.063348
-0.0594489
-0.0606703
0.0344282
0.0315099
0.0756835
0.0740922
-0.0154852
0.113522
0.228845
0.111114
-0.123659
-0.126974
-0.0396537
0.00352986
0.0547313
0.00408374
-0.0668925
-0.059126
-0.0371684
0.0151867
0.000463755
-0.0700052
-0.116362
-0.0821347
-0.04699
-0.0315052
-0.0406671
0.031423
0.0413056
0.0729131
0.073063
-0.0275225
0.140038
0.229995
0.0520812
-0.16044
-0.0770808
0.0323741
0.0200152
0.0578909
0.0552522
-0.0356605
-0.0523617
-0.0721936
-0.0704282
-0.0116212
-0.0511763
-0.12037
-0.0861243
-0.0434629
-0.0274055
-0.0339218
0.0126979
0.0555061
0.0685151
0.0633102
-0.0207939
0.159895
0.216193
0.0139671
-0.129242
-0.0163225
0.0590371
-0.00655638
0.0117235
0.066434
-0.026254
-0.0600047
-0.0884565
-0.122249
-0.0336401
-0.0583022
-0.115199
-0.087887
-0.0439116
-0.0294693
-0.0348937
0.0107972
0.0583356
0.0634622
0.0482285
0.0111795
0.157456
0.177274
-0.00942035
-0.0978549
0.00691269
0.0536161
-0.0105239
-0.0104906
0.0509155
-0.0176311
-0.0523665
-0.0993705
-0.148594
-0.0577704
-0.0616087
-0.0976906
-0.0689779
-0.0375026
-0.0163904
-0.0213165
0.0051874
0.0539975
0.0582493
0.0388521
0.0441522
0.133953
0.133072
-0.0274897
-0.0713363
0.0210214
0.0501249
0.00817073
0.00195672
0.0239604
-0.0242092
-0.0381578
-0.115962
-0.1775
-0.0565907
-0.0418977
-0.0756449
-0.0447284
-0.025241
0.00791658
0.0156729
-0.00222121
0.0456895
0.053009
0.0381647
0.0466311
0.115459
0.111003
-0.0338798
-0.0444961
0.0547232
0.0682328
0.0140679
0.000303157
-0.00275609
-0.0325553
-0.0397796
-0.130459
-0.201268
-0.0468072
0.0132292
-0.0361648
-0.0294053
-0.0150576
0.0301538
0.0355483
-0.0133112
0.0297632
0.0467323
0.0325343
0.022849
0.116941
0.110865
-0.0310797
-0.0318636
0.0754779
0.0899655
0.0171582
-0.0211943
-0.0254818
-0.0254421
-0.0688975
-0.175254
-0.195861
-0.0400466
0.0582428
-0.00620711
-0.0160797
0.0048921
0.0444844
0.0202767
-0.034295
0.013627
0.0393654
0.0232602
-0.00182096
0.131515
0.112617
-0.0314359
-0.0251277
0.0731265
0.097355
0.0329429
-0.0332266
-0.0464576
-0.0099545
-0.0820088
-0.185811
-0.210702
-0.085508
0.0410571
0.000539539
-0.00998798
0.0351413
0.0675897
0.00363551
-0.0528195
0.0048322
0.0314895
0.0128076
-0.025153
0.145665
0.122665
-0.0447639
-0.0355631
0.0709046
0.109991
0.0478614
-0.0418617
-0.0656237
-0.0113014
-0.0328084
-0.0939336
-0.221239
-0.178262
-0.00781265
-0.00864678
-0.0299288
0.0328992
0.0583648
-0.00946346
-0.060289
-0.00104254
0.0232118
0.00799198
-0.0406411
0.141815
0.115727
-0.0628819
-0.038904
0.0883215
0.130194
0.0464548
-0.0478464
-0.0626795
-0.0050392
0.00474909
-0.0260415
-0.113768
-0.215798
-0.0738413
-0.050734
-0.0799853
0.00173903
0.058022
0.00682962
-0.0438706
0.0258047
0.0147032
0.00536164
-0.0494507
0.128771
0.0834059
-0.0815468
-0.0240204
0.11761
0.141672
0.0404051
-0.038415
-0.0287196
0.0166451
0.00599109