/*--------------------------------*- C++ -*----------------------------------*\
  =========                 |
  \\      /  F ield         | OpenFOAM: The Open Source CFD Toolbox
   \\    /   O peration     | Website:  https://openfoam.org
    \\  /    A nd           | Version:  11
     \\/     M anipulation  |
\*---------------------------------------------------------------------------*/
FoamFile
{
    format      ascii;
    class       surfaceScalarField;
    location    "25";
    object      phi;
}
// * * * * * * * * * * * * * * * * * * * * * * * * * * * * * * * * * * * * * //

dimensions      [0 3 -1 0 0 0 0];

internalField   nonuniform List<scalar> 
49858
(
3153.68
32.8963
12.7993
3132.99
40.896
-23.4198
3103.66
58.3178
-36.5585
3019.49
88.2551
-34.7516
2956.24
105.701
-26.7011
2948.6
97.5292
-12.3694
2964.42
75.9533
0.144959
2952.07
76.7763
2.84859
2894.86
92.5717
-18.0449
2791.68
101.459
-64.7272
2606.39
171.767
-94.3391
2417.5
222.36
-128.782
2246.94
225.44
-107.396
2083.85
235.923
-35.107
1967.74
207.409
-11.1943
1836.34
202.134
21.1699
1691.33
154.882
36.6279
1482.66
123.688
54.8355
1204.3
141.142
114.104
884.493
160.238
152.851
618.554
137.962
124.955
442.437
182.987
36.3555
464.944
-19.4567
64.0314
590.663
-237.929
129.035
49.1144
100.389
3201.3
15.5883
14.6672
3219.74
28.4974
-21.0734
3252.47
47.5481
-37.1602
3268.62
89.1427
-30.6228
3272.24
94.2865
-31.3454
3326.44
92.8745
-32.2199
3421.69
138.73
-18.2712
3490.1
157.998
-5.19693
3546.23
98.351
-7.3988
3647.72
27.2313
-28.1633
3723.45
47.8725
-29.6222
3752.35
104.554
-40.2781
3703.75
154.83
-22.1378
3604.79
228.195
16.6314
3500.82
276.906
31.0833
3397.33
314.271
49.9179
3266.89
290.188
62.2568
3101.08
277.35
78.4853
2831.87
299.821
130.928
2509.53
310.709
179.872
2128.06
308.761
219.564
1798.18
256.171
237.82
1417.86
97.6033
201.604
1090.97
-128.884
187.931
108.877
207.376
3187.24
11.5989
13.6187
3181.38
42.6219
-19.4688
3195.22
56.2355
-38.6799
3177.9
80.2442
-40.1057
3133.04
130.183
-45.9907
3163.59
123.408
-44.685
3254.7
130.231
-23.8194
3303.25
182.046
9.90191
3346.43
106.47
27.4162
3433.68
-56.7799
14.1043
3503.91
-65.396
-3.83923
3564.13
-28.8622
-27.2927
3573.09
50.7818
-8.76154
3586.03
113.928
33.2777
3591.03
220.481
43.2999
3587.99
312.902
55.4379
3539.92
333.178
80.5319
3428.15
304.068
129.499
3223.63
324.83
200.11
2996.52
300.204
242.512
2732.52
276.677
275.67
2416.78
224.152
301.652
2047.63
114.542
296.14
1562.89
-15.2865
286.104
179.082
302.31
3184.4
11.8289
13.4729
3176.87
46.5691
-19.8911
3195.13
52.595
-40.7177
3182.14
93.8644
-41.8382
3131.15
131.674
-50.2842
3133.15
90.9267
-51.4459
3201.18
103.465
-27.4559
3229.24
216.427
22.3463
3256.53
149.52
46.0162
3318.55
-24.5031
24.0051
3363.21
-42.7934
-2.4383
3404.91
-43.2796
-22.7668
3405.49
36.0067
-14.9173
3405.32
42.9529
8.90672
3407.19
131.94
17.2857
3425.08
223.341
41.0361
3423.31
292.721
80.8834
3333.57
334.146
139.805
3156.39
373.182
214.353
2924.4
322.618
268.688
2675.68
257.38
293.982
2373.89
186.91
310.32
2003.76
78.5697
302.361
1686.56
-67.7924
276.844
53.1461
293.997
3180.05
13.1922
14.0857
3176.7
54.2458
-20.9747
3199.5
45.633
-43.3964
3181.73
75.9042
-44.377
3145.89
129.333
-53.6635
3145.66
81.2735
-48.7569
3173.04
95.7149
-12.3447
3188.5
218.548
47.6247
3222.76
140.639
61.0855
3277.01
0.254798
18.4838
3323.07
-5.94816
-9.32358
3354.47
-12.1831
-20.1139
3388.15
27.8222
-14.6246
3369.12
14.6051
16.4403
3354.87
82.8801
21.2124
3355.26
167.749
34.4511
3355.06
240.196
60.5553
3297.58
321.659
87.5012
3182.49
374.686
133.621
2985.03
345.438
197.17
2744.72
275.254
244.877
2470.94
190.968
273.267
2146.48
107.758
268.452
1858.21
-60.9841
229.459
-84.4184
224.629
3180.08
14.9174
14.9941
3174.83
51.1774
-21.8351
3189.53
44.784
-48.2179
3171.56
76.8152
-42.6878
3154.54
119.251
-47.0878
3150.01
65.0927
-22.5737
3123.09
78.2214
28.8779
3111.29
175.371
83.8058
3157.67
154.355
87.1683
3210.51
88.815
32.5752
3256.69
55.2042
7.03317
3260.03
-1.13088
15.5132
3321.7
-13.4669
22.7523
3288.39
6.62117
53.4272
3251.07
23.4988
52.7334
3239.18
68.0668
49.7782
3234.44
141.842
44.9818
3198.98
260.966
45.7313
3140.56
338.676
77.0351
3022.77
351.133
135.434
2830.05
331.277
195.442
2571.37
284.2
245.69
2266.6
199.512
266.601
1907.36
31.4372
253.264
-154.234
240.343
3180.26
13.1608
15.9996
3171.98
52.2216
-21.3337
3180.46
47.6358
-51.2721
3156.69
85.8454
-33.0025
3156.2
124.486
-36.9039
3138.62
64.1398
0.0243275
3087.83
82.6741
48.1483
3088.76
156.19
75.3406
3159.5
100.43
48.8629
3212.35
114.78
7.37796
3250.6
83.1737
2.16356
3250.58
29.6789
38.0531
3292.4
-72.0318
48.4259
3253.66
2.32304
62.9705
3205.74
-4.08268
56.4439
3199.67
3.55043
29.8133
3189.42
77.7348
5.8431
3155.83
223.513
4.2153
3113.35
295.915
39.0489
3041.33
316.658
89.4703
2913.87
319.045
138.94
2717.99
300.088
193.533
2451.81
243.068
227.573
2075.87
162.071
240.736
-60.7655
271.346
3178.6
11.6209
17.6553
3167.07
50.5662
-18.9164
3175.28
57.8872
-49.3647
3144.27
98.1079
-26.4508
3148.8
117.467
-37.9584
3122.17
85.9644
0.442433
3083.31
122.751
34.3119
3110.13
166.601
30.9584
3199.77
118.325
6.17099
3245.69
159.09
2.00277
3277.1
88.9268
20.6211
3278.02
-18.636
67.9151
3274.38
-159.884
82.3829
3245.84
-69.0566
77.1715
3222.8
-17.9513
65.9255
3216.56
-11.723
30.6219
3182.11
26.1211
18.0701
3130.55
124.748
22.7905
3075.2
182.201
59.6087
2989.82
209.522
111.571
2876.65
245.328
149.728
2733.03
258.692
191.631
2551.31
240.686
210.265
2266.69
225.577
227.363
36.8543
272.771
3175.67
10.3655
20.0916
3163.52
50.7261
-17.0108
3169.92
53.7096
-43.755
3138.04
104.034
-25.452
3142.56
128.783
-43.8378
3118.24
116.159
-15.8978
3099.41
135.111
6.64584
3145.64
133.731
-6.8244
3206.59
82.2768
-5.05173
3244.57
138.718
25.0065
3269.02
61.2788
64.6077
3278.38
-75.5902
104.526
3234.53
-188.387
109.403
3234.8
-91.8693
84.4902
3255.93
-38.7369
56.7847
3246.27
-15.894
37.8747
3182.77
-2.17392
50.814
3118.24
75.5334
59.2853
3047.67
142.777
83.4322
2938.83
194.448
141.78
2800.96
235.785
180.668
2636.41
247.121
214.31
2464.77
198.952
219.782
2288.8
192.008
213.783
64.7027
251.163
3174.25
8.4661
23.0418
3161.41
43.5909
-13.508
3166.53
50.1728
-36.1152
3144.57
108.958
-23.1624
3139.42
127.185
-55.3489
3107.06
106.859
-46.6824
3098.08
133.405
-20.593
3154.4
136.431
-11.9234
3170.53
82.5064
21.5118
3190.37
77.0667
65.9006
3206.99
-26.5184
112.516
3223.53
-148.545
130.337
3169.89
-196.756
119.999
3186.03
-150.245
76.6294
3233.49
-122.754
44.0138
3234.25
-95.141
42.5085
3170.36
-93.6632
76.6864
3095.57
-41.3441
80.7523
3014.15
27.0782
86.6148
2903.65
102.267
128.928
2772.64
166.622
164.989
2583.9
168.023
207.412
2363.6
140.152
228.994
2196.09
138.795
213.527
70.6076
231.399
3170.27
5.53741
27.0529
3160.42
33.5364
-10.0799
3165.64
36.7793
-28.1331
3148.96
77.5011
-21.591
3128.67
103.925
-65.7846
3086.09
155.897
-59.5135
3092.45
137.213
-22.6933
3129.81
74.758
12.237
3093.06
59.141
79.8246
3082.53
40.9984
128.294
3084.67
-52.6972
166.533
3087.19
-165.576
161.157
3047.82
-169.267
132.199
3066.4
-190.222
80.8467
3097.47
-181.481
55.0068
3123.65
-178.865
53.9417
3093.5
-183.814
81.9458
3028.61
-145.803
76.5242
2972.09
-80.8646
52.4727
2912.82
16.6882
70.8844
2823.66
114.986
108.478
2645.94
172.952
168.725
2402.18
165.521
231.194
2191.22
107.338
244.238
117.253
227.275
3167.57
0.282247
32.4905
3162.16
19.7292
-6.22038
3167.47
15.4647
-21.8425
3146.98
38.1623
-9.26814
3130.5
88.3683
-52.8242
3067.9
119.538
-67.9009
3066.22
23.032
-38.9063
3090.67
-21.5343
26.4359
3029.86
7.96474
118.361
2994.11
-44.572
159.04
2978.47
-134.512
175.644
2957.73
-217.111
163.158
2942.6
-206.806
130.03
2955.36
-272.446
81.8936
2958.01
-317.65
66.1658
3003.98
-353.828
49.3671
3009.66
-335.187
59.3842
2980.17
-294.923
58.3057
2976.07
-263.467
18.72
2970.21
-146.439
-8.78926
2916
58.7608
9.54788
2763.77
198.782
79.016
2535.08
156.937
186.654
2315.93
96.0677
266.993
171.259
262.34
3162.94
-4.83236
38.8675
3158.33
-5.98885
-1.04367
3169.45
-14.6677
-14.5773
3149.06
-20.106
4.50241
3108.16
-13.7237
-32.3287
3035.08
95.3389
-51.9634
3024.07
12.5529
-28.6321
3032.64
-74.9649
48.734
2964.09
-33.1349
156.697
2898.69
-79.9934
201.04
2855.39
-173.882
195.726
2813.62
-251.553
181.579
2811.3
-305.662
150.798
2799.88
-394.403
116.798
2798.03
-443.933
104.165
2849.06
-500.198
91.2517
2880.55
-476.163
102.368
2879.26
-449.804
109.865
2879.69
-440.771
69.5617
2874.38
-267.332
8.15729
2857.57
-13.1731
-7.45771
2793.18
152.069
32.8163
2672.34
149.412
130.163
2502.71
12.1521
243.781
163.206
304.842
3157.26
-12.3447
45.4035
3150.82
-26.5825
8.20034
3170.62
-48.9504
0.295796
3142.38
-79.9054
22.224
3080.64
-89.6288
4.47407
3004.67
1.99178
-20.1773
2960.21
-135.971
-37.2305
2965.77
-236.068
-0.785425
2928.25
-141.548
114.791
2857.19
-142.691
179.541
2804.38
-215.779
179.623
2762.17
-305.405
177.264
2770.42
-420.992
162.329
2753.43
-503.196
144.294
2769.87
-557.618
133.993
2821.74
-604.864
132.357
2869.9
-562.911
140.438
2877.05
-509.182
145.782
2843.31
-470.627
128.607
2794.98
-322.166
92.2909
2784.38
-128.618
64.8292
2815.34
74.4124
45.0353
2787.32
118.555
62.1466
2689.51
-8.68443
146.071
217.884
264.753
3150.36
-16.8465
52.1522
3132.24
-45.8614
23.0985
3149.19
-75.0105
20.9326
3114.04
-128.441
57.6229
3015.22
-167.643
50.0307
2918.05
-143.282
17.4471
2836.16
-195.073
-24.6029
2829.13
-248.842
-46.2705
2824.1
-189.478
36.5861
2771.21
-183.199
121.779
2744.1
-283.239
143.946
2748.81
-422.637
149.331
2785.88
-570.798
130.82
2801.56
-590.367
105.02
2847.74
-618.334
92.2492
2902.09
-649.533
103.672
2955.7
-596.193
108.818
2974.13
-506.551
115.271
2930.21
-437.4
123.883
2866.03
-307.819
113.297
2848.65
-164.753
70.2527
2906.55
-26.2383
4.13146
2928.17
102.75
-44.7903
2861.69
45.0332
-17.026
336.052
127.986
3143.21
-22.5247
59.627
3114.3
-42.1647
43.1766
3120.4
-92.3274
44.4262
3069.58
-172.856
92.0461
2922.29
-244.426
97.2964
2816.06
-279.108
77.4216
2693.24
-296.656
9.49687
2614.47
-336.342
-73.754
2637.07
-272.048
-65.4541
2648.92
-184.055
-4.7986
2680.19
-259.614
22.0826
2754.94
-416.039
38.4734
2833.77
-589.915
25.1884
2889.91
-541.465
-17.373
2951.81
-478.56
-41.9675
3018.11
-450.529
-32.1825
3085.17
-385.528
-29.1629
3138.78
-288.758
-23.8755
3152.19
-192.063
-7.05425
3118.34
-88.7816
14.3256
3059.72
-40.8569
-12.8591
3086.25
34.4218
-102.596
3128.84
232.481
-180.884
3068.74
235.618
-175.832
476.128
-55.3387
3135.22
-23.3776
69.6981
3091.01
-48.1668
64.9799
3079.45
-89.9123
72.1938
2995.72
-184.148
136.235
2825.17
-255.64
155.039
2683.83
-404.547
135.317
2486.48
-370.274
70.49
2312.48
-370.427
-13.3902
2341.66
-400.119
-70.7519
2419.19
-276.749
-50.9865
2453.21
-276.676
16.1159
2496.32
-492.773
73.5063
2591.05
-715.495
96.3019
2697
-573.828
51.4209
2771.1
-377.729
2.71334
2871.38
-339.752
-16.9373
2974.48
-259.729
-42.5598
3067.07
-155.475
-64.9707
3139.47
-50.654
-74.8439
3147.84
48.8518
-68.1454
3094.25
121.997
-87.238
3098.04
180.01
-181.618
3154.45
359.982
-279.295
3138.13
426.536
-273.593
566.109
-167.766
3124.38
-25.2495
80.8703
3066.42
-29.9763
94.5409
3030.93
-72.2011
108.054
2908.54
-184.439
181.22
2742.52
-257.331
194.277
2567.2
-432.319
166.592
2303.49
-357.338
135.142
2068.64
-403.863
109.719
2148.14
-613.323
3.69892
2305.58
-434.525
-48.5805
2197.15
-196.962
35.6583
1974.82
-346.765
131.939
1907.24
-764.016
171.759
1996.63
-690.609
134.984
2072.59
-356.177
77.1394
2267.66
-409.933
60.4917
2495.29
-385.839
32.2192
2700.29
-276.64
-6.47848
2871.82
-145.663
-41.4822
2981.94
24.0134
-64.9333
2991.34
175.272
-101.012
2984.1
260.663
-202.097
3052.49
447.216
-305.583
3110.09
537.36
-282.622
704.575
-195.727
3110.37
-18.7375
93.9457
3034.28
-17.4335
127.876
2963.75
-59.6765
148.337
2806.01
-149.816
226.13
2645.41
-280.698
223.265
2440.79
-427.838
181.642
2201.55
-395.393
181.455
1988.42
-481.081
140.404
2046.37
-748.115
-28.7273
2204.76
-551.379
-84.3653
2038.82
-34.2418
44.7623
1683.65
-78.3236
145.869
1410.34
-524.164
147.908
1343.19
-552.669
114.462
1298.16
-251.204
105.48
1513.76
-644.365
148.853
1806.67
-749.416
146.461
2112.31
-682.955
107.65
2420.32
-551.965
65.1436
2668.56
-323.123
19.3238
2771.49
-3.53906
-44.9474
2800.13
247.486
-159
2882.33
447.508
-271.159
3040.69
599.838
-252.551
636.127
-195.966
3096.12
-9.27127
106.203
2991.39
-12.7281
166.239
2885.53
-44.5633
198.299
2695.84
-97.1662
275.009
2513.17
-191.444
265.701
2269.38
-273.089
207.248
2080.67
-338.594
191.001
1925.71
-409.772
116.822
1805.28
-592.4
-26.0826
1751.97
-451.554
-37.3526
1641.33
-83.5749
147.364
1627.58
-306.62
250.781
1541.14
-532.129
158.211
1369.83
-217.372
74.4605
1030.36
154.934
109.533
992.367
-729.729
198.513
1091.59
-1071.48
209.024
1310.42
-1168.84
179.436
1658.69
-1203.49
153.313
2077.36
-1075.4
118.167
2342.05
-523.631
41.784
2479.1
-42.7716
-76.5574
2642.9
290.51
-195.497
2826.84
405.93
-207.887
568.504
-158.979
3089.29
-3.8483
117.715
2949.53
-16.5646
204.503
2815.29
-80.1355
241.174
2622.96
-93.3123
320.891
2392.7
-125.225
324.456
2119.18
-110.928
250.752
1889.17
-199.256
198.795
1688.51
-308.617
190.289
1441.48
-405.402
140.286
1239.58
-341.704
128.52
1196.35
-291.782
259.397
1384.96
-735.494
287.002
1545.18
-617.778
126.9
1411.36
60.8819
36.3335
921.393
679.852
72.9622
631.79
-506.639
106.025
540.618
-1098.58
103.302
673.219
-1474.03
104.273
895.604
-1702.73
119.26
1342.85
-1838.59
131.92
1721.27
-1215.59
78.095
2004.96
-560.408
-6.40112
2247.62
-98.3662
-110.764
2477.48
175.443
-133.799
323.905
-96.3111
3095.35
-15.4153
126.978
2917.86
-36.2996
230.052
2757.05
-26.8969
273.746
2576.9
18.7344
359.595
2328.6
-18.0424
373.712
2077.32
-0.142398
303.833
1788.35
-48.7775
265.24
1497.97
-215.007
295.194
1231.1
-349.382
291.27
1110.99
-375.515
243.917
1210.86
-530.977
255.6
1299.22
-821.641
162.142
1319.62
-467.209
50.8138
1196.94
549.966
102.898
906.723
1003.9
84.2577
661.734
-282.331
4.76446
570.304
-1046.88
-12.1991
630.704
-1563.45
-39.897
658.659
-1819.71
26.5989
861.075
-2237.43
39.5004
1104.68
-1695.02
-3.56945
1449.28
-1108.21
2.62233
1733.87
-507.742
-52.5274
2067.33
-272.19
-83.5807
-270.199
3.34144
3093.31
-31.6781
132.914
2929.58
31.5617
254.66
2780.14
52.7952
267.992
2598.18
47.4619
330.432
2343.34
39.9144
366.06
2097.14
36.445
310.554
1813.86
15.3345
304.531
1507.47
-105.554
324.534
1283.18
-244.542
315.697
1173.34
-314.859
320.399
1192.84
-498.145
250.214
1135.18
-536.793
179.171
1076.77
77.6835
158.082
1177.32
1346.87
253.346
1457.03
745.666
98.3658
1204.08
-4.61215
-24.8064
1092.11
-816.929
-115.079
1042.56
-1241.04
-221.695
850.652
-1397.86
-164.183
657.775
-1674.94
-243.587
761.704
-1522.58
-248.123
1033.32
-1273.03
-135.895
1300.13
-778.597
-114.299
1486.57
-541.107
-113.002
-465.673
-105.876
3083.94
-19.1891
134.942
2950.58
61.2758
245.098
2831.01
75.3633
245.306
2645.51
46.9886
332.449
2353
37.076
412.381
2069.17
27.5546
372.735
1816
12.2255
377.373
1517.2
3.67132
394.761
1269.93
44.3891
303.265
1137.28
58.9328
282.632
1044.18
-22.4844
326.829
807.676
-10.1854
339.549
936.655
329.917
404.31
1966.9
931.561
648.614
2233.9
388.766
261.188
1966.95
252.487
77.3056
1766.03
-270.547
-225.72
1636.82
-494.003
-425.178
1370.98
-506.025
-338.296
1118.06
-552.582
-351.08
1024.57
-710.598
-344.784
1038.29
-709.877
-225.532
1127.4
-645.71
-136.978
1136.65
-463.006
-129.632
-222.732
-321.66
3071.92
124.146
2947.89
211.782
2830.54
210.55
2620.4
270.945
2334.68
351.017
2079.59
332.489
1816.41
355.095
1526.88
411.477
1335.49
416.132
1267.75
378.513
1129.08
349.215
904.745
347.202
950.177
372.861
1501.67
439.374
1559.3
374.013
1662.29
200.996
1575.5
-113.574
1448.72
-277.717
1372.68
-298.812
1203.46
-195.816
841.028
-135.325
424.784
-103.525
62.3739
-190.858
53.6277
-389.245
-745.066
3189.45
34.1198
-10.8016
3156.45
44.981
-35.7782
3136.55
57.066
-68.1462
3077.23
112.944
-64.2777
3028.53
104.538
-51.3244
3027.26
63.1771
-41.5595
3054.11
48.4752
-31.6855
3088.56
17.9927
-22.9273
3101.01
-30.4149
-23.9312
3069.33
-43.6932
-29.2662
3051.47
-114.5
-7.5682
3070.56
-176.786
-20.7345
3092.01
-138.026
-0.846859
3159.72
-71.3398
15.2311
3234.93
6.71373
3.36625
3265.45
71.5095
20.4769
3249.45
54.6586
46.5459
3207.98
-18.3282
123.45
3155.32
-60.884
192.016
3118.31
-62.5454
204.488
3100.85
-72.8267
197.261
3060.65
-110.191
209.622
3039.84
-110.917
231.224
3076.47
-116.049
262.063
-14.041
178.312
3249.48
10.1857
-13.2964
3261.35
34.9289
-34.707
3318.15
47.829
-68.0983
3354.79
107.091
-65.3584
3365.05
98.8725
-52.9601
3413.37
68.0841
-50.255
3492.51
83.1381
-43.5126
3570.78
49.7258
-30.3782
3622.88
-35.5441
-20.192
3642.06
-104.804
-23.7773
3638.92
-233.447
-23.8893
3645.74
-277.104
-56.1369
3641.59
-188.037
-64.1913
3692.84
-104.502
-39.2437
3772.39
-2.09895
-15.5322
3865.78
80.9974
18.5251
3935.4
79.6961
38.2232
3952.44
5.248
66.087
3950.49
-30.9726
104.839
3928.86
-0.793593
136.139
3866.49
28.9512
175.882
3774.39
-3.31884
219.217
3660.38
-40.8599
251.58
3511.57
-78.1438
300.182
30.1928
254.289
3225.62
10.1358
-14.6683
3222.68
42.3667
-34.1638
3246.3
45.7856
-69.7778
3242.29
112.252
-60.7343
3221.62
106.717
-45.9007
3251.08
63.3015
-47.9133
3321.56
90.9849
-30.9561
3379.23
86.5872
4.00512
3416.86
-6.46066
21.9842
3439.95
-118.383
9.49775
3446.98
-268.517
-2.34641
3473.88
-339.632
-56.0675
3496.85
-202.815
-78.9749
3554.49
-128.285
-48.9525
3624.31
-23.415
-11.8759
3723.81
49.7714
21.4741
3833.63
70.1193
26.3103
3912.95
53.942
37.0669
3984.54
27.5769
84.1003
4014.17
56.2752
150.312
3985.05
107.428
219.826
3909.38
94.4064
275.58
3798.76
40.4398
308.119
3614.62
15.0941
359.943
141.402
329.435
3222.96
13.7455
-16.4971
3221.49
44.4691
-33.2824
3248.06
53.1031
-71.8108
3241.48
116.735
-56.0646
3214.82
84.9481
-52.5754
3230.71
42.7763
-58.245
3290.6
102.831
-22.9034
3320.09
141.072
32.2224
3337.6
36.6827
37.8063
3378.65
-117.205
9.88051
3399.51
-283.214
-26.956
3445.8
-375.327
-79.0508
3502.8
-247.989
-79.339
3533.94
-204.226
-38.6291
3555.11
-116.908
-2.246
3598.66
-44.6316
43.0213
3677.79
28.2864
59.3552
3762.31
86.8657
68.6944
3851.65
81.2461
112.444
3893.09
114.719
194.692
3872.15
157.152
272.309
3791.58
141.535
331.44
3655.35
88.3585
363.539
3492.04
9.23412
405.235
77.3879
381.712
3226.57
16.8983
-18.382
3221.06
50.0906
-32.6961
3245.96
55.6547
-70.6147
3233.87
98.6834
-49.4049
3207.97
85.2089
-57.9554
3223.08
48.7885
-54.738
3270.61
90.8545
-15.9574
3296.96
166.742
27.5446
3324.12
86.2239
25.6179
3379.98
-119.823
0.852812
3409.48
-264.869
-32.708
3450.21
-349.531
-70.0159
3530.73
-278.733
-76.1738
3558.27
-217.331
-41.6449
3590.78
-176.9
-32.9927
3631.6
-91.3017
-17.3967
3668.25
21.5399
12.7855
3708.14
112.805
40.039
3766.97
113.681
80.5706
3808.27
127.653
163.559
3802.91
177.048
249.659
3748.51
174.521
312.05
3631.45
135.229
341.672
3456.6
38.1621
368.4
-48.3465
351.683
3230.27
18.5348
-20.3782
3218.93
53.6557
-28.3591
3230.53
58.1391
-70.1238
3222.63
109.202
-43.2654
3209.24
118.203
-62.4551
3227.98
71.1859
-51.5853
3266.11
108.976
-18.7435
3298.42
192.806
9.90853
3344.11
105.346
15.2468
3403.36
-124.142
10.1699
3443.09
-244.52
-10.8951
3468.83
-311.527
-36.8581
3577.16
-283.349
-65.4207
3635.4
-177.171
-55.1335
3676.06
-159.797
-66.7046
3713.16
-85.343
-79.5066
3744.36
34.761
-48.1419
3760.94
155.171
-1.28815
3774.32
161.941
46.4227
3795.35
137.819
135.26
3794.34
154.271
216.362
3760.01
174.49
271.704
3686.21
170.608
303.912
3504.18
114.111
338.21
-58.2438
344.278
3232.5
18.6148
-20.789
3217.73
63.1127
-25.9657
3217.28
66.9063
-60.5793
3213.65
118.332
-44.0517
3222.82
148.414
-74.2862
3240.43
111.405
-52.9914
3250.79
141.924
-19.0893
3267.99
223.867
8.85095
3312.34
108.156
17.191
3357.44
-122.082
13.9159
3407.96
-225.649
-11.5859
3457.37
-232.136
-39.0025
3571.39
-246.655
-80.886
3664.53
-148.74
-86.9719
3693.49
-89.432
-91.0922
3712.4
-33.7545
-92.392
3727
35.2458
-54.199
3734.66
146.349
-11.3799
3740.91
172.669
43.8405
3738.38
101.004
114.752
3735.91
90.5334
174.569
3733.81
140.198
227.053
3720.07
153.473
257.107
3620.08
165.835
295.916
0.834335
341.961
3233.57
19.6147
-19.413
3216.6
63.8934
-25.3148
3209.11
70.934
-54.0696
3208.49
132.982
-48.9805
3234.17
182.096
-73.5436
3232.67
172.944
-41.0419
3205.03
181.505
-4.05239
3201.4
192.405
20.9504
3244.04
46.4039
35.3613
3283.01
-133.856
24.1896
3349.95
-195.281
-16.6222
3450.86
-168.656
-51.5702
3550.92
-185.604
-78.3736
3674.83
-103.546
-75.6622
3713.49
13.4356
-58.5885
3725.26
16.5208
-37.8549
3709.04
21.6996
11.7073
3710.98
122.637
30.6314
3727.04
178.598
66.162
3722.78
148.725
120.085
3703.5
134.271
159.532
3700.36
146.056
200.781
3701.84
132.605
236.932
3680.76
131.299
268.57
6.2271
325.101
3231.98
19.709
-16.8334
3217.51
72.7088
-23.2312
3207.86
73.4456
-49.5976
3214.66
153.377
-49.495
3239.03
169.982
-59.5467
3210.24
173.606
-24.6465
3148.07
187.577
8.28501
3142.16
139.294
22.1698
3189.15
-40.4344
27.0446
3237.95
-148.183
11.2199
3328.53
-162.558
-29.5874
3465.08
-129.48
-59.7236
3562.05
-94.1982
-68.1777
3668.83
-51.9509
-57.2203
3719.82
66.8619
-25.1559
3724.56
47.0378
-2.1114
3694.74
34.5209
43.0427
3698.89
118.931
49.3515
3722.52
201.832
67.8213
3719.31
235.747
109.719
3690.27
221.185
139.676
3677.9
191.55
175.676
3657.42
145.201
207.966
3651.92
105.528
245.402
-19.4133
299.373
3228.95
22.9352
-12.3513
3219.68
68.2815
-23.3815
3213.92
74.8117
-47.9386
3221.4
125.698
-45.4836
3226.18
122.267
-45.9456
3180.45
177.92
-8.50988
3112.81
226.41
13.2356
3115.15
133.063
6.21309
3172.23
-38.8413
1.73375
3240.43
-70.9242
-13.0361
3357.05
-44.6706
-39.8786
3505.52
-3.06076
-50.6619
3609.02
35.1048
-44.4291
3679.45
30.6255
-26.992
3738.3
86.2004
17.68
3741.14
71.4152
34.4503
3716.62
37.1238
66.5944
3711.77
60.097
75.8546
3722.46
126.42
93.3443
3708.08
244.413
123.337
3672.86
319.659
149.546
3644.62
300.553
170.907
3627.09
244.94
177.142
3609.21
151.928
204.492
18.924
264.915
3228.59
25.6128
-8.37893
3220.37
59.6048
-17.1833
3213.01
73.5985
-45.2578
3225.36
115.852
-37.3458
3215.16
88.8551
-37.6898
3156.84
130.215
-3.61852
3091.79
202.046
11.5039
3107.69
114.173
-14.4624
3175.32
0.404091
-26.0598
3274.27
32.4143
-42.7202
3423.74
95.446
-47.6075
3571.59
117.675
-24.8728
3681.05
134.173
4.1534
3744.34
90.2912
20.9742
3800.87
48.3822
72.6706
3803.67
22.506
96.8697
3771.91
-34.1352
132.69
3742.52
-61.823
132.65
3729.29
-22.6808
123.747
3709.91
135.962
157.672
3661.86
263.833
179.231
3607.21
305.915
176.363
3595.83
300.767
158.171
3581.7
223.335
173.693
132.732
231.23
3231.9
24.5626
-3.55631
3215.63
49.7056
-10.0136
3214.04
72.7328
-35.4547
3226.15
71.9117
-32.0751
3199.64
17.0609
-47.9671
3129.91
82.924
-13.0804
3076.43
235.956
14.4967
3104.92
250.674
-12.4468
3170.21
220.712
-29.752
3292.47
259.839
-44.5284
3458.54
282.468
-36.5738
3605.96
244.624
13.9499
3712.26
185.06
52.3205
3772.71
67.6333
58.9108
3811.41
-54.2177
89.7748
3822.53
-124.598
115.33
3805.48
-219.769
165.088
3779.49
-282.096
178.481
3746.78
-294.246
146.274
3701.3
-183.61
164.332
3631.49
29.1144
194.034
3563.44
207.613
202.172
3563.21
290.603
195.001
3574.96
308.255
203.817
292.151
235.19
3238.13
19.3089
0.385997
3212.27
40.8609
1.18236
3217.18
52.2978
-21.8296
3228.85
31.0463
-22.3464
3199.58
-5.97297
-51.7992
3131.19
80.9015
-21.8786
3094.19
227.712
25.7556
3119.04
307.568
12.7324
3189.81
381.191
-1.01835
3328.93
410.382
-7.45447
3500.06
381.743
18.9051
3638.61
289.937
80.148
3733.23
181.267
102.533
3778.6
37.7097
98.3642
3802.59
-99.0009
102.594
3824.27
-200.929
114.415
3824.06
-315.143
147.12
3802.58
-408.694
172.28
3762.07
-458.653
160.045
3712.17
-417.508
183.003
3639.2
-202.967
218.831
3553.09
41.4073
228.765
3542.39
197.674
218.673
3583.42
284.841
218.742
394.476
238.666
3241.23
11.0537
5.86835
3210.39
40.2227
14.932
3225.18
34.5452
-5.23854
3251.21
17.8959
-10.4201
3226.54
-16.2693
-54.9294
3163.95
29.4689
-42.0442
3131.02
154.981
32.2538
3147.41
341.377
38.029
3200.29
522.244
27.3067
3328.07
496.038
47.6885
3492.44
347.414
93.3566
3621.85
194.897
139.822
3711.54
83.2835
126.045
3747.04
-38.8767
102.534
3763.04
-168.531
94.8717
3783
-272.173
105.255
3786.62
-355.95
111.343
3780.74
-425.204
124.685
3756.67
-467.254
130.804
3707.32
-491.796
149.232
3643.72
-337.181
177.948
3566.15
-51.3252
182.467
3515.58
158.43
155.769
3560.08
267.587
140.902
467.508
163.604
3236.65
9.0259
12.7627
3209.31
39.5182
27.7781
3245.05
33.3999
13.6374
3298.41
-13.6192
14.0759
3288.15
-10.8841
-37.2101
3253.35
51.9326
-41.5177
3230.18
85.0694
52.0617
3229.73
215.939
85.0952
3251.61
491.694
74.5831
3342.19
458.794
104.007
3470.28
229.322
145.22
3571.55
80.8686
161.302
3646.75
-2.28004
125.93
3680.67
-83.8617
104.066
3697.97
-204.733
100.843
3707.48
-301.953
115.68
3714.56
-349.035
90.7287
3732.35
-374.938
66.3428
3731.27
-376.928
57.2841
3680.4
-373.958
54.7797
3629.72
-257.764
48.8695
3584.82
-13.4148
23.8118
3529.24
202.371
-8.39292
3539.4
282.292
-18.9026
509.286
6.89706
3234.04
11.0624
18.8173
3210.52
49.1631
46.7222
3253
47.4678
28.6891
3334.6
8.30051
39.3882
3364.02
41.4159
3.12366
3373.25
33.7429
-15.0662
3372.03
-112.872
68.7981
3352.55
-122.735
122.541
3352.66
215.126
92.17
3386.44
236.67
121.793
3440.46
6.39978
170.113
3499.63
-118.597
168.393
3560.13
-175.039
126.33
3591.06
-216.083
80.5461
3603.91
-281.097
45.9937
3610.65
-308.728
9.47775
3630.58
-294.825
-58.8396
3649.85
-266.887
-105.208
3658.85
-205.372
-119.111
3628.67
-146.356
-114.071
3604.8
-73.2089
-137.889
3597.18
109.193
-194.805
3570.43
299.66
-232.646
3555.74
329.376
-212.447
585.423
-180.036
3236.42
14.4978
25.4341
3213.09
76.7885
63.5322
3267.14
91.3497
49.1752
3357.22
54.1464
74.4322
3414.13
93.229
55.2289
3463.25
33.7331
31.8312
3480.35
-282.196
109.908
3415.67
-368.835
154.273
3407.86
-93.0844
142.592
3388.82
-71.0491
253.485
3385.64
-302.022
340.129
3438.51
-374.276
304.228
3510.37
-334.747
224.355
3560.16
-280.41
125.462
3582.64
-265.851
35.4216
3607.93
-226.938
-53.3458
3649.77
-168.561
-147.476
3672.56
-93.8513
-199.215
3676.03
-13.6391
-213.362
3649.76
65.1335
-211.452
3624.66
144.127
-247.04
3618.02
289.491
-333.974
3600.89
428.565
-394.129
3599.26
430.54
-349.566
643.857
-317.696
3244.51
18.3862
31.2098
3229.88
111.113
86.8476
3295.34
128.214
82.3592
3372.68
99.5211
120.471
3429.77
121.731
114.059
3502.92
-8.48042
85.056
3495.13
-450.032
168.093
3355.67
-567.787
227.385
3318.51
-444.612
219.287
3288.35
-431.319
285.262
3276.73
-541.605
320.24
3335.87
-535.364
305.794
3423.77
-441.423
266.168
3505.17
-314.463
175.331
3535.11
-207.314
98.1105
3569.6
-111.766
29.0641
3615.56
-22.2799
-61.3266
3637.66
52.4267
-120.16
3640.7
102.453
-141.014
3629.23
166.88
-157.511
3608.02
262.376
-222.217
3591.98
403.406
-345.556
3583.26
507.155
-437.097
3607.01
418.069
-392.782
658.247
-366.514
3250.89
23.0593
38.4676
3254.01
150.097
110.673
3316.19
147.92
124.59
3367.54
143.084
185.507
3423.91
116.055
204.052
3506.22
-102.637
174.174
3447.06
-524.262
251.447
3273
-648.171
302.122
3266.35
-703.628
175.506
3316.45
-666.796
108.235
3279.88
-523.666
112.321
3166.8
-405.633
189.138
3085.1
-374.702
237.067
3123.8
-340.303
198.455
3190.71
-231.339
165.736
3294.31
-133.846
155.722
3390.16
-20.7862
107.241
3450.98
66.4183
53.9054
3482.67
86.0035
27.8384
3499.39
121.617
-10.9771
3498.21
241.553
-105.827
3483.36
422.052
-254.128
3479.54
487.372
-368.364
3549.6
346.44
-336.608
574.925
-348.919
3258.66
30.1495
46.0071
3281.94
152.942
142.081
3329.58
107.97
173.315
3360.98
134.078
252.993
3413.15
69.1634
303.961
3471.34
-166.505
278.942
3395.16
-500.258
293.322
3266.6
-667.034
300.948
3214.08
-800.779
146.708
3188.59
-708.824
28.4893
3134.82
-398.812
62.0171
2983.16
-146.497
151.195
2757.78
-129.489
184.614
2620.59
-206.013
171.783
2607.27
-203.67
184.244
2734.82
-209.628
213.346
2895.18
-134.302
189.009
3032.7
-51.0168
143.608
3137.27
-54.7358
126.695
3215.33
-57.7869
98.8086
3261.17
57.936
11.8452
3267.06
263.945
-124.135
3284.94
313.886
-229.721
3402.49
123.422
-227.022
336.515
-286.139
3266.46
25.1157
54.9473
3296.84
104.493
170.497
3318.11
63.8887
207.067
3369.39
118.24
313.945
3390.43
52.317
430.442
3363.73
-138.688
404.282
3283.03
-398.97
348.714
3202.55
-631.762
374.008
3046.69
-758.339
313.149
2849
-612.777
233.796
2743.22
-308.006
280.154
2727.85
-161.809
339.576
2642.94
-167.191
300.883
2425.63
-120.691
236.855
2218.28
-109.316
235.416
2150.59
-275.017
249.416
2230.05
-367.362
233.322
2385.97
-350.454
189.483
2570.83
-382.823
166.939
2743.9
-394.932
149.254
2866.71
-263.736
88.6866
2937.67
-16.7252
4.59052
2980.37
34.439
-64.6884
3153.49
-213.747
-101.009
-84.5524
-189.579
3282.19
4.1492
61.0973
3315.9
69.2832
187.136
3272.09
2.05936
221.258
3326.24
-34.4033
342.983
3342.71
-13.9815
531.132
3288.21
-65.0543
519.619
3206.73
-222.246
454.583
3084.84
-455.595
493.748
2881.32
-590.104
493.246
2656.94
-533.624
457.237
2521.17
-385.586
444.078
2538.02
-462.684
435.727
2573.95
-533.921
396.571
2449.22
-201.743
350.709
2179.11
-19.3011
303.318
1887.79
-182.213
253.72
1751.29
-434.697
210.22
1774.29
-595.706
160.464
1941.59
-723.865
136.25
2165.74
-808.454
117.366
2360.19
-691.135
89.022
2499.12
-403.431
73.3445
2565.74
-299.26
62.8397
2693.28
-482.779
-4.38177
-424.851
-51.0127
3303.09
-24.9872
59.9546
3336.15
-5.00934
178.58
3256.87
-9.78218
194.092
3309.13
-83.4218
321.788
3333.36
-36.9267
525.938
3285.41
-39.6467
538.495
3234.17
-132.304
509.193
3090
-304.498
537.86
2866.59
-424.262
541.545
2679.18
-446.238
535.351
2611.13
-408.581
478.57
2590.73
-553.591
419.739
2545.02
-639.388
406.382
2476.58
-212.278
408.681
2337.14
-4.29378
319.743
2115.65
-35.0793
166.39
1935.23
-283.214
33.9981
1827.46
-586.226
-38.3037
1859.61
-811.516
-60.6203
1929.59
-1002.98
-75.716
2009.47
-914.287
-53.8788
2128.32
-609.233
11.7686
2192.36
-450.477
30.5401
2122.02
-423.241
-24.4621
-343.308
-72.2143
3309.8
-64.3946
53.5956
3370.58
-59.3804
169.514
3404.26
-57.3165
179.529
3478.81
-132.688
277.147
3493.41
-21.5031
479.304
3400.01
37.1202
568.579
3279.78
-9.67484
596.778
3084.73
-104.891
618.612
2797.55
-183.346
579.636
2574.11
-220.911
521.32
2571.66
-302.079
458.422
2561.61
-425.467
409.355
2521.87
-464.606
411.101
2673.35
-49.943
460.275
2748.31
-34.7147
369.729
2851.65
-67.2868
192.276
2777
-160.176
-70.4
2525.04
-336.443
-229.108
2336.27
-472.462
-285.399
2163.15
-656.093
-285.753
2027.76
-564.801
-234.405