/*--------------------------------*- C++ -*----------------------------------*\
  =========                 |
  \\      /  F ield         | OpenFOAM: The Open Source CFD Toolbox
   \\    /   O peration     | Website:  https://openfoam.org
    \\  /    A nd           | Version:  11
     \\/     M anipulation  |
\*---------------------------------------------------------------------------*/
FoamFile
{
    format      ascii;
    class       volVectorField;
    location    "25";
    object      U;
}
// * * * * * * * * * * * * * * * * * * * * * * * * * * * * * * * * * * * * * //

dimensions      [0 1 -1 0 0 0 0];

internalField   nonuniform List<vector> 
17196
(
(0.991359 0.00329575 0.00229553)
(0.981821 0.00524765 -0.00164754)
(0.970834 0.00814854 0.00020568)
(0.964683 0.0132862 0.00810721)
(0.945295 0.0132013 0.0175341)
(0.920854 0.0139432 0.0243826)
(0.911428 0.0115158 0.0258972)
(0.910386 0.0053717 0.0376186)
(0.905693 0.00135604 0.0596045)
(0.897388 0.00184001 0.0728339)
(0.874569 0.0109103 0.0736029)
(0.808124 0.0383653 0.0435341)
(0.719133 0.0792158 0.00502678)
(0.654104 0.100802 0.00574959)
(0.627738 0.0777716 0.0124992)
(0.604776 0.0368177 0.0216409)
(0.55864 -0.000248852 0.0306062)
(0.479509 -0.00396031 0.0592068)
(0.417054 -0.00665834 0.102199)
(0.344875 0.0104682 0.108718)
(0.227228 0.000538062 0.076468)
(0.138922 -0.0157429 0.0428799)
(0.145178 -0.0320244 0.0953704)
(0.165638 -0.027692 0.137185)
(0.169567 0.0207509 0.13449)
(0.999911 0.00328962 0.00338107)
(1.00136 0.00554693 -5.81779e-05)
(1.00699 0.0101967 0.0027291)
(1.02337 0.0167509 0.0131182)
(1.03262 0.014521 0.0236599)
(1.03446 0.0159205 0.0268894)
(1.04285 0.0157389 0.021929)
(1.06284 0.00548469 0.0294562)
(1.091 -0.00364157 0.0521806)
(1.12311 -0.00614866 0.0713365)
(1.16999 0.00371503 0.0851485)
(1.19312 0.0291213 0.0770248)
(1.17404 0.065842 0.0561776)
(1.13405 0.0986805 0.0535444)
(1.10225 0.0929668 0.0558972)
(1.07684 0.0708157 0.0612162)
(1.04443 0.0399798 0.069768)
(0.991296 0.0247975 0.0833271)
(0.933168 0.0259195 0.114042)
(0.853339 0.0409396 0.131965)
(0.722832 0.0464134 0.130073)
(0.595659 0.0353764 0.124093)
(0.523354 0.000864324 0.112808)
(0.3882 -0.0462749 0.105124)
(0.26484 0.00862878 0.119684)
(0.997616 0.00221418 0.00317651)
(0.993689 0.00537232 0.000327341)
(0.993261 0.00787903 0.001869)
(0.998092 0.00964719 0.0129719)
(0.996012 0.0140241 0.0232358)
(0.991491 0.0181457 0.0247806)
(0.991909 0.025475 0.0213587)
(1.00502 0.0243496 0.0302344)
(1.02828 0.0101686 0.0479136)
(1.05635 -0.00715595 0.0602959)
(1.09834 -0.00596655 0.0622426)
(1.12514 -0.0085267 0.0479268)
(1.12725 -0.0106735 0.0339268)
(1.11641 0.015153 0.0395639)
(1.11221 0.0432151 0.0524233)
(1.11798 0.0542438 0.0671798)
(1.11269 0.0432556 0.0795211)
(1.08554 0.0243899 0.0904218)
(1.04705 0.0284268 0.113075)
(0.988682 0.0342891 0.127124)
(0.89853 0.0524101 0.125359)
(0.799953 0.0595059 0.117015)
(0.700492 0.0416143 0.108696)
(0.603502 0.0158886 0.097265)
(0.360803 0.0255332 0.109165)
(0.997182 0.00180509 0.00314681)
(0.992948 0.00684817 0.000385312)
(0.991543 0.00721811 0.00149666)
(0.998092 0.0123756 0.014909)
(0.995993 0.0242989 0.022764)
(0.987472 0.025143 0.023321)
(0.986532 0.0348864 0.0224844)
(0.987783 0.0561675 0.0287163)
(0.995529 0.0415026 0.0431385)
(1.02019 0.00587557 0.0538424)
(1.06152 -0.00234631 0.0487938)
(1.0737 -0.0143687 0.0328373)
(1.07236 -0.0236503 0.0218286)
(1.06768 -0.0263346 0.0257191)
(1.06132 0.00998967 0.0428851)
(1.0626 0.0460785 0.0599096)
(1.06283 0.0615412 0.0706731)
(1.05107 0.0597419 0.0805975)
(1.02209 0.0574017 0.0982851)
(0.966658 0.0404561 0.112294)
(0.883291 0.0332614 0.108477)
(0.786849 0.0333761 0.0962539)
(0.680864 0.0267923 0.0860051)
(0.599575 0.0179566 0.0757732)
(0.44641 0.0446849 0.0918458)
(0.996675 0.00191716 0.00323534)
(0.991607 0.00789805 0.000278349)
(0.991601 0.0073292 0.00220606)
(1.001 0.0148037 0.0153331)
(0.995183 0.0225284 0.0187242)
(0.98689 0.0137029 0.019382)
(0.995954 0.0183996 0.0158124)
(0.986542 0.0507055 0.0139806)
(0.973863 0.0406606 0.029141)
(0.999178 0.00221783 0.0471887)
(1.04963 -0.0105104 0.0394416)
(1.06584 -0.0102061 0.0211331)
(1.05525 0.00161217 0.0135002)
(1.05126 -0.0256849 0.0225304)
(1.05874 -0.0192457 0.0361194)
(1.05336 0.0186084 0.0462162)
(1.03739 0.0559219 0.0541828)
(1.02869 0.0748397 0.0615742)
(1.01856 0.0767259 0.0715837)
(0.978293 0.0592041 0.0868688)
(0.904813 0.0319311 0.0924417)
(0.814475 0.0128903 0.0851433)
(0.716663 -0.00219515 0.0723293)
(0.644263 -0.0403434 0.0625272)
(0.52753 -0.0109276 0.0725804)
(0.996647 0.00216428 0.00339345)
(0.990719 0.00832155 0.000225635)
(0.990658 0.00793226 0.00259591)
(1.00088 0.0137151 0.0158084)
(0.990799 0.0184032 0.0159901)
(0.982226 0.00514106 0.0180797)
(0.997876 0.00278293 0.015647)
(0.978839 0.0241296 0.0113876)
(0.944896 0.0228429 0.0290666)
(0.965941 0.00281663 0.0510762)
(1.02725 -0.00497097 0.0400428)
(1.05254 -0.00176075 0.0133408)
(1.03179 0.019354 0.00111134)
(1.01465 0.0175332 0.0129978)
(1.02935 0.00495613 0.0264334)
(1.0286 0.00905074 0.0367711)
(1.00468 0.0291417 0.0470302)
(0.991127 0.0520407 0.0519865)
(0.992715 0.0624949 0.0569356)
(0.973999 0.0603029 0.0722603)
(0.922452 0.0456404 0.0826706)
(0.848051 0.0242588 0.0807863)
(0.749016 0.00680052 0.0764485)
(0.677731 -0.0179172 0.0770439)
(0.52389 -0.0414807 0.0766375)
(0.996886 0.00219003 0.0035392)
(0.989531 0.00823833 0.000339712)
(0.989839 0.0075632 0.00314874)
(1.00123 0.0134357 0.0173691)
(0.985108 0.0196329 0.0155841)
(0.974211 0.00398594 0.0192088)
(0.993052 -0.00049374 0.0219818)
(0.977086 0.00791301 0.0224546)
(0.940605 0.00703662 0.0363695)
(0.963046 0.00984877 0.048907)
(1.02448 0.0113442 0.0313163)
(1.05201 0.00825884 -4.51821e-05)
(1.0328 0.0063713 -0.0183416)
(1.00395 0.0303472 -0.00678371)
(1.00585 0.0269598 0.00828842)
(1.01167 0.0097294 0.0253211)
(0.999201 0.0053814 0.0446296)
(0.983584 0.0296006 0.0523395)
(0.980483 0.0526136 0.0547963)
(0.968388 0.0640999 0.067498)
(0.932959 0.0652058 0.0778105)
(0.88158 0.0511013 0.0770177)
(0.803847 0.0292118 0.0795333)
(0.741145 0.0108951 0.0876109)
(0.548639 -0.0253132 0.089211)
(0.996629 0.00193587 0.00375313)
(0.988263 0.00805349 0.000751424)
(0.988559 0.00801866 0.00421069)
(1.00207 0.0131277 0.0190081)
(0.979784 0.0186813 0.0162978)
(0.965425 0.00916983 0.0215118)
(0.989567 0.00969922 0.027777)
(0.979886 0.0141589 0.0320209)
(0.95301 0.00452608 0.0407286)
(0.980563 0.0204166 0.0393256)
(1.03522 0.0250829 0.0144884)
(1.05038 0.0142816 -0.014881)
(1.03502 -0.0159438 -0.0289381)
(1.01173 0.00316065 -0.0155012)
(1.00029 0.0126586 0.000576388)
(1.00422 0.000755924 0.0243404)
(1.00467 -0.00456288 0.0486254)
(0.990847 0.0194903 0.0568111)
(0.972362 0.0435663 0.0542386)
(0.950307 0.0550609 0.0582295)
(0.91612 0.0641503 0.0664274)
(0.872098 0.0678678 0.0709874)
(0.816975 0.0558286 0.0765757)
(0.789503 0.0408582 0.089796)
(0.615024 0.00711407 0.0966112)
(0.996048 0.00169824 0.0040859)
(0.987184 0.00784549 0.00123029)
(0.987481 0.00887925 0.00511352)
(1.0013 0.0153378 0.0208172)
(0.976107 0.0177425 0.0197347)
(0.962419 0.0189887 0.0261492)
(0.993208 0.0262864 0.0317814)
(0.984004 0.0279806 0.0344444)
(0.960619 0.0168494 0.0392309)
(0.993492 0.0331073 0.0246951)
(1.03494 0.0280322 -0.00277068)
(1.03541 0.00421633 -0.0239721)
(1.0244 -0.0288343 -0.0294764)
(1.014 -0.0172402 -0.0150631)
(1.00352 -0.00647902 0.00314037)
(1.00684 -0.00482861 0.0241953)
(1.01154 0.00235089 0.0428849)
(0.996491 0.0182404 0.0507874)
(0.96684 0.0242016 0.0475837)
(0.934688 0.0267609 0.0445164)
(0.897521 0.0350326 0.0437956)
(0.84681 0.0483633 0.0463461)
(0.782192 0.0552001 0.0537156)
(0.767066 0.0546197 0.0692491)
(0.650059 0.0185163 0.086275)
(0.995558 0.00141951 0.0044389)
(0.986467 0.00743499 0.00209266)
(0.987247 0.00815577 0.00549659)
(1.00097 0.016894 0.0233088)
(0.974331 0.0192194 0.0237172)
(0.96388 0.0212205 0.0290841)
(0.993409 0.0298572 0.0310649)
(0.980774 0.0299194 0.0292145)
(0.958204 0.0194843 0.0282219)
(0.987591 0.0237719 0.00650716)
(1.01426 0.00432931 -0.0165631)
(1.00719 -0.0250774 -0.0277504)
(1.00143 -0.044189 -0.0239873)
(0.999971 -0.0376892 -0.0125498)
(0.995219 -0.0306676 0.00987154)
(1.00457 -0.0155831 0.0236617)
(1.00962 -0.0044787 0.0358333)
(0.98902 0.00203065 0.0435543)
(0.955259 -0.000391121 0.0464642)
(0.923322 -0.00094419 0.0445439)
(0.887727 0.00346685 0.036682)
(0.840027 0.00784343 0.0233834)
(0.765095 0.0149631 0.0177795)
(0.719832 0.0235493 0.0286704)
(0.632245 0.00964519 0.0532081)
(0.994682 0.00105375 0.00498952)
(0.985288 0.00612302 0.00294631)
(0.987258 0.00680461 0.00667429)
(1.00139 0.0159234 0.0249951)
(0.971384 0.0191221 0.0246184)
(0.961886 0.0195932 0.0322772)
(0.991863 0.0250181 0.0333696)
(0.975825 0.0217933 0.0262297)
(0.94418 0.0153133 0.0196924)
(0.960234 0.00826892 -0.000760486)
(0.972779 -0.0147626 -0.0154886)
(0.962472 -0.037911 -0.0199285)
(0.958846 -0.0404474 -0.0115534)
(0.961124 -0.0410138 0.000450508)
(0.960982 -0.0342984 0.0243238)
(0.973244 -0.0122318 0.0378382)
(0.977072 -0.00588966 0.0496493)
(0.958612 -0.0061677 0.0566408)
(0.936024 0.00172877 0.0620818)
(0.921907 0.0147625 0.0690394)
(0.898559 0.0207475 0.0631503)
(0.858348 0.0139363 0.0404302)
(0.788032 0.00579417 0.0265572)
(0.722206 0.00593274 0.0276839)
(0.623814 0.00943875 0.0300988)
(0.993851 0.000392098 0.00574524)
(0.984557 0.00420528 0.00393969)
(0.988066 0.0044083 0.00835158)
(1.00222 0.01061 0.0255013)
(0.969276 0.0172419 0.0240668)
(0.961546 0.021196 0.0329003)
(0.987419 0.0125829 0.0354915)
(0.967923 0.00294674 0.0250928)
(0.928454 0.00231914 0.0129947)
(0.932794 -0.00821675 -0.00376301)
(0.937337 -0.024342 -0.011297)
(0.926973 -0.034673 -0.00816659)
(0.922462 -0.0242701 0.00444818)
(0.924573 -0.0284146 0.021126)
(0.928161 -0.0248519 0.0464945)
(0.937451 -0.0212304 0.0598022)
(0.937606 -0.0230785 0.0707011)
(0.927883 -0.0217132 0.0789661)
(0.931069 -0.00948925 0.0867457)
(0.940902 0.0182166 0.096253)
(0.925216 0.0434915 0.09419)
(0.8844 0.0499348 0.0783359)
(0.825645 0.0352404 0.076918)
(0.771588 0.0226509 0.084156)
(0.653208 0.025252 0.06266)
(0.992804 -0.000388524 0.00665278)
(0.982992 0.0011215 0.00504521)
(0.987313 7.96507e-05 0.0112915)
(1.00232 0.00240283 0.0269813)
(0.969153 0.011425 0.021279)
(0.951905 0.0234276 0.0327257)
(0.976491 0.00400075 0.0468478)
(0.956156 -0.0043699 0.0358268)
(0.909655 0.00163567 0.0214736)
(0.901429 -0.00871781 0.0123786)
(0.89851 -0.0200104 0.0163976)
(0.889387 -0.0242646 0.0332527)
(0.88256 -0.0168548 0.053063)
(0.879925 -0.0245868 0.0753397)
(0.880185 -0.0339152 0.09898)
(0.884533 -0.0563166 0.111814)
(0.888247 -0.0624919 0.118021)
(0.889947 -0.0594452 0.121203)
(0.903191 -0.0568035 0.120184)
(0.915586 -0.0275171 0.117974)
(0.901727 0.0231522 0.115374)
(0.873493 0.0530015 0.114559)
(0.845397 0.0410331 0.128435)
(0.830272 0.0147312 0.142784)
(0.716145 0.0313911 0.122928)
(0.991838 -0.00130133 0.00758766)
(0.98125 -0.00259537 0.00683247)
(0.985224 -0.00524449 0.014538)
(0.999816 -0.0097232 0.0283983)
(0.968784 -0.00865977 0.0204352)
(0.94243 0.0139386 0.0320541)
(0.957309 -0.00276904 0.0560873)
(0.939695 -0.0166788 0.0510568)
(0.896364 -0.00756148 0.0414116)
(0.882992 -0.0157239 0.0436829)
(0.880905 -0.0285124 0.0677704)
(0.877062 -0.0379486 0.101915)
(0.873256 -0.0505131 0.129148)
(0.868284 -0.0664061 0.149197)
(0.863723 -0.084474 0.16673)
(0.867926 -0.107889 0.175722)
(0.883741 -0.108305 0.172966)
(0.895158 -0.10016 0.164906)
(0.897424 -0.0974842 0.152167)
(0.891384 -0.0737349 0.138522)
(0.881151 -0.0329123 0.137319)
(0.865388 0.00358046 0.143832)
(0.859168 0.00455365 0.158539)
(0.879814 -0.0176126 0.168025)
(0.781074 0.0102201 0.161412)
(0.990813 -0.00215984 0.00848133)
(0.978864 -0.0057952 0.00958666)
(0.978641 -0.00986678 0.017201)
(0.98826 -0.0192535 0.0329868)
(0.958523 -0.0267013 0.0256459)
(0.92147 -0.0132016 0.0361563)
(0.918343 -0.0242792 0.0726267)
(0.901043 -0.0358186 0.0877635)
(0.863376 -0.0214813 0.0897948)
(0.845651 -0.0262168 0.106088)
(0.853685 -0.0480838 0.145289)
(0.86808 -0.0719363 0.179265)
(0.87777 -0.0983065 0.192914)
(0.8807 -0.108537 0.193085)
(0.878888 -0.118598 0.196672)
(0.887142 -0.127438 0.199574)
(0.913416 -0.119072 0.191323)
(0.93152 -0.10378 0.176529)
(0.924009 -0.0969926 0.160877)
(0.906186 -0.0852556 0.14282)
(0.904234 -0.0644011 0.136501)
(0.900096 -0.026856 0.136452)
(0.889727 -0.00200615 0.13961)
(0.926208 -0.0132668 0.142491)
(0.843109 0.0380654 0.151215)
(0.99006 -0.00300925 0.00948881)
(0.975876 -0.00692992 0.012853)
(0.972234 -0.0132653 0.0212471)
(0.975122 -0.0233258 0.0371141)
(0.939396 -0.0352602 0.0302729)
(0.892169 -0.0360969 0.0451856)
(0.873791 -0.0451642 0.093042)
(0.847403 -0.0552848 0.134324)
(0.804172 -0.0406817 0.152351)
(0.791095 -0.031759 0.168662)
(0.820714 -0.0509377 0.194659)
(0.860455 -0.0788268 0.205514)
(0.888098 -0.107577 0.192648)
(0.904337 -0.102668 0.167186)
(0.906625 -0.0951815 0.154313)
(0.920282 -0.0889303 0.153021)
(0.953464 -0.0763609 0.147929)
(0.980499 -0.0614511 0.135846)
(0.982786 -0.0508258 0.127966)
(0.974359 -0.039594 0.121378)
(0.977249 -0.0306842 0.11379)
(0.972125 -0.00757115 0.0950804)
(0.95008 0.0302337 0.0848116)
(0.982946 0.0274621 0.0837354)
(0.934041 0.07887 0.0965472)
(0.988914 -0.00351827 0.0107698)
(0.971945 -0.00710433 0.0165194)
(0.963093 -0.0143785 0.0268344)
(0.958771 -0.0272648 0.0445648)
(0.91293 -0.0357277 0.0420711)
(0.856728 -0.0511496 0.0566264)
(0.816645 -0.055795 0.106884)
(0.7673 -0.0617827 0.176898)
(0.71065 -0.050114 0.213985)
(0.710102 -0.0215079 0.199136)
(0.754335 -0.0274334 0.182397)
(0.781498 -0.0605886 0.163662)
(0.803448 -0.0903554 0.146235)
(0.836215 -0.0784387 0.121071)
(0.846435 -0.0624571 0.103537)
(0.871087 -0.0549906 0.101231)
(0.914969 -0.0427599 0.0993029)
(0.951502 -0.0277216 0.0904396)
(0.970361 -0.00693225 0.0856873)
(0.977362 0.0162472 0.0862892)
(0.982058 0.0235408 0.0827143)
(0.983263 0.0233243 0.0581276)
(0.9658 0.0563335 0.0358419)
(0.988239 0.0661051 0.0369693)
(0.985556 0.0869559 0.0522113)
(0.987405 -0.00369874 0.0121321)
(0.967248 -0.00629515 0.0213534)
(0.952093 -0.0132777 0.0339139)
(0.941029 -0.0293781 0.056714)
(0.884147 -0.0373494 0.0624185)
(0.823977 -0.07124 0.0760354)
(0.769727 -0.0601422 0.110856)
(0.694011 -0.0548154 0.190388)
(0.637291 -0.06801 0.224927)
(0.674099 -0.0406689 0.18409)
(0.718943 -0.0201354 0.13529)
(0.661972 -0.0484873 0.0630998)
(0.595591 -0.0910111 0.0251304)
(0.608032 -0.0715854 0.0184836)
(0.623793 -0.0410179 0.0158278)
(0.667736 -0.0438415 0.0275817)
(0.746543 -0.0326577 0.0376609)
(0.818932 -0.0151576 0.0393711)
(0.874596 0.00354766 0.0425543)
(0.913581 0.0265832 0.0497904)
(0.936965 0.0419079 0.0534638)
(0.947864 0.0434703 0.0358926)
(0.942822 0.0681518 0.0110738)
(0.961932 0.0840615 0.0158605)
(0.992664 0.0978479 0.0376646)
(0.985211 -0.00349001 0.0136954)
(0.961352 -0.00371798 0.0267759)
(0.937545 -0.0115337 0.0418759)
(0.918609 -0.0282539 0.0719054)
(0.848168 -0.0465939 0.0867094)
(0.784016 -0.080783 0.101121)
(0.730261 -0.0686351 0.124046)
(0.668957 -0.0816827 0.181988)
(0.607384 -0.129211 0.160547)
(0.648462 -0.0996878 0.11615)
(0.6876 -0.0271117 0.0847078)
(0.602106 -0.0324028 0.00517792)
(0.473864 -0.116847 -0.0626935)
(0.404956 -0.126512 -0.0708058)
(0.398818 -0.0708353 -0.0430467)
(0.429592 -0.078737 -0.0094943)
(0.519227 -0.066398 0.00928741)
(0.614216 -0.0429772 0.0146219)
(0.712399 -0.0188615 0.0219107)
(0.797527 0.00707025 0.0340224)
(0.855052 0.0347679 0.043834)
(0.883789 0.0529049 0.0332123)
(0.891053 0.0746544 0.00869854)
(0.92434 0.0922448 0.00954972)
(0.972962 0.107243 0.0330282)
(0.983298 -0.00238142 0.015122)
(0.954046 -0.00211643 0.032948)
(0.919762 -0.00816049 0.050205)
(0.891388 -0.0216068 0.0877577)
(0.80844 -0.0424881 0.106237)
(0.730996 -0.0597401 0.109114)
(0.677246 -0.0635693 0.121899)
(0.649139 -0.0820999 0.143794)
(0.575329 -0.134738 0.0733176)
(0.538202 -0.107728 0.0156915)
(0.52759 -0.00942814 0.024567)
(0.517955 -0.00696065 0.0346181)
(0.513726 -0.066359 -0.0127078)
(0.430186 -0.0563098 -0.0446652)
(0.384381 -0.00144564 -0.0243731)
(0.303324 -0.0930281 -0.00897825)
(0.315435 -0.124301 0.00394876)
(0.369593 -0.123828 0.00316816)
(0.455326 -0.110251 0.00871127)
(0.582413 -0.0787871 0.0268968)
(0.698746 -0.0155879 0.0459003)
(0.768419 0.0371696 0.0438792)
(0.803587 0.0724893 0.0220612)
(0.859147 0.0872988 0.0128049)
(0.92266 0.107335 0.0333515)
(0.983062 -0.0012549 0.0164503)
(0.947037 -0.00154854 0.0391381)
(0.904054 -0.00574094 0.0570513)
(0.868348 -0.0134665 0.101383)
(0.777711 -0.0318082 0.11776)
(0.688313 -0.0336698 0.0985791)
(0.625529 -0.0493653 0.0862418)
(0.580975 -0.0603577 0.0918904)
(0.487322 -0.0733208 0.0338504)
(0.404302 -0.0486509 -0.0187289)
(0.354523 -0.0163684 0.0169227)
(0.403931 -0.0903128 0.058042)
(0.478335 -0.0960584 0.0264497)
(0.445595 -0.0145029 -0.00213182)
(0.409703 0.0626487 -0.0118209)
(0.2257 -0.109962 -0.0519073)
(0.155416 -0.201695 -0.0436623)
(0.184468 -0.23647 -0.0412372)
(0.237525 -0.254925 -0.031468)
(0.336715 -0.222096 -0.00905382)
(0.480601 -0.116582 0.0287546)
(0.601108 -0.0203956 0.0506233)
(0.66574 0.0402533 0.0388091)
(0.753346 0.0653006 0.0265088)
(0.80971 0.0744203 0.0466093)
(0.984951 -0.00120835 0.017474)
(0.942551 -0.00379414 0.0437873)
(0.892438 -0.00545804 0.0602465)
(0.850674 0.0045578 0.106124)
(0.758045 -0.00230787 0.117221)
(0.671339 -0.00437144 0.0852043)
(0.614188 -0.0186558 0.0590875)
(0.527981 -0.035982 0.0516664)
(0.422053 -0.0450858 0.0302816)
(0.339579 -0.049989 -0.000406895)
(0.339781 -0.0825025 0.0267215)
(0.417015 -0.162861 0.0313681)
(0.421047 -0.123304 0.00723318)
(0.345542 0.00787248 0.0153814)
(0.398063 0.134874 -0.0410843)
(0.220708 -0.0756811 -0.113888)
(0.178706 -0.181761 -0.086909)
(0.183019 -0.252047 -0.0945183)
(0.206585 -0.31002 -0.0501466)
(0.222628 -0.372975 -0.0378484)
(0.29452 -0.26683 -0.00924723)
(0.408508 -0.143529 0.0508897)
(0.505271 -0.0565862 0.0566157)
(0.581379 -0.0175543 0.0332914)
(0.727011 0.0177006 0.0663528)
(0.986218 -0.00344929 0.0178342)
(0.939509 -0.000523351 0.0486174)
(0.896457 -0.00267363 0.0605536)
(0.862259 0.0102706 0.103817)
(0.766801 0.024697 0.107639)
(0.676905 0.0326011 0.0617148)
(0.619022 0.0274846 0.0276807)
(0.531848 -0.00697417 0.0158379)
(0.4293 -0.0381148 0.00792168)
(0.366211 -0.060844 0.0148281)
(0.334102 -0.109567 0.0113492)
(0.408612 -0.112663 0.00586993)
(0.345086 -0.0249598 -0.00953934)
(0.243445 0.0965514 -0.0113497)
(0.527165 0.159131 -0.109919)
(0.409323 -0.0475458 -0.137443)
(0.348589 -0.170175 -0.105079)
(0.325377 -0.287756 -0.121781)
(0.332471 -0.311697 -0.0612083)
(0.199523 -0.421637 -0.0833519)
(0.211031 -0.336375 -0.0713356)
(0.269998 -0.271261 0.0151976)
(0.373572 -0.18469 0.0492268)
(0.436185 -0.145585 0.0256733)
(0.519166 -0.126312 -0.00713196)
(0.982488 -0.00396301 0.0182522)
(0.942435 0.00645887 0.0478313)
(0.902952 0.00783138 0.0591431)
(0.879732 -0.00677058 0.100577)
(0.786396 -0.00692239 0.115417)
(0.678145 0.0056564 0.0706321)
(0.600596 0.011962 0.0334719)
(0.540521 -0.000216764 0.0179937)
(0.428977 -0.0168066 -0.0346978)
(0.355438 -0.0253298 -0.0330264)
(0.312031 -0.0368622 -0.00650467)
(0.329217 -0.0256939 -0.0110599)
(0.172623 0.0547127 0.000591177)
(0.454915 0.268927 0.0905243)
(0.734829 0.0407167 -0.108047)
(0.698403 0.019396 -0.107795)
(0.546064 -0.108634 -0.148223)
(0.539258 -0.131629 -0.180305)
(0.492873 -0.142692 -0.0797334)
(0.370248 -0.108352 -0.0777909)
(0.326918 -0.167099 -0.065494)
(0.297457 -0.214071 -0.0109201)
(0.351382 -0.130287 0.0259806)
(0.372558 -0.059437 0.00488684)
(0.345816 -0.0626456 -0.121616)
(0.980434 -0.00284476 0.0163263)
(0.942205 0.00207723 0.0413999)
(0.900481 0.00574515 0.0524647)
(0.869654 -0.00891934 0.0802019)
(0.783275 -0.019206 0.0983309)
(0.684561 -0.0150819 0.0699991)
(0.604898 -0.00480061 0.0438853)
(0.52939 0.00911962 0.0366729)
(0.442102 0.0207257 0.00964783)
(0.394296 0.033463 -0.0168382)
(0.353957 0.00987574 -0.0150287)
(0.30975 -0.0550652 0.00995265)
(0.26289 -0.00971899 0.0291057)
(0.407638 0.179985 0.0540004)
(0.485716 0.172044 0.0475064)
(0.525664 0.160479 0.0401664)
(0.503779 0.104972 -0.0318431)
(0.479404 0.0707579 -0.0894639)
(0.425267 0.0374873 -0.080511)
(0.415939 -0.0689754 -0.0277023)
(0.32537 -0.10147 -0.00225288)
(0.171405 -0.0196422 -0.0313489)
(0.127807 0.0431233 -0.06802)
(-0.00763316 0.0657912 -0.121673)
(0.0832792 0.10439 -0.280045)
(0.999063 0.00354928 0.000309903)
(0.987705 0.00557323 -0.00863452)
(0.983939 0.0102685 -0.0143787)
(0.981145 0.0202834 -0.0135573)
(0.960528 0.0221553 -0.0191291)
(0.932853 0.0158728 -0.0315928)
(0.930933 -0.00197743 -0.03744)
(0.959009 -0.0173977 -0.022953)
(0.974819 -0.0223575 -0.00214432)
(0.975283 -0.0168558 0.00186463)
(0.971903 -0.0085507 -0.00467844)
(0.947734 0.0175737 -0.04356)
(0.949039 0.0486569 -0.0704713)
(0.979525 0.0621402 -0.0594354)
(1.00168 0.0519803 -0.0536676)
(1.01471 0.0381356 -0.0500684)
(1.01744 0.028178 -0.0514677)
(1.01101 0.0203563 -0.0353444)
(0.998506 0.0239762 0.000306337)
(0.979834 0.0309424 0.0312997)
(0.965058 0.0224737 0.0409319)
(0.965266 0.00950059 0.0370597)
(0.953859 0.00383916 0.0265212)
(0.962452 -0.00130058 0.0291955)
(0.949207 0.0168309 -0.0133098)
(1.00937 0.00287126 -1.90005e-05)
(1.01136 0.00617759 -0.00859774)
(1.02607 0.00966638 -0.0156814)
(1.05385 0.0224686 -0.0128822)
(1.05994 0.0230578 -0.0179033)
(1.0473 0.0160627 -0.0349327)
(1.05908 0.00666111 -0.0451356)
(1.10235 -0.00989869 -0.032345)
(1.13123 -0.0262823 -0.0125455)
(1.14321 -0.0317292 -0.00717125)
(1.15167 -0.0427475 -0.00933994)
(1.13863 -0.039278 -0.0370306)
(1.13212 -0.0137966 -0.0608941)
(1.145 0.00467887 -0.0612465)
(1.16001 0.00305061 -0.0587129)
(1.19117 -0.00115829 -0.0499677)
(1.21613 -0.0156862 -0.044542)
(1.23233 -0.0379358 -0.0346308)
(1.24657 -0.0355577 -0.0025193)
(1.23757 -0.0179847 0.024277)
(1.21346 -0.0134929 0.0423932)
(1.19368 -0.0255815 0.0554911)
(1.16827 -0.0337279 0.0597096)
(1.13119 -0.0407261 0.0765238)
(1.06016 -0.0207326 0.059571)
(1.00549 0.00165196 -0.000398845)
(1.00116 0.00606118 -0.00833922)
(1.01054 0.00467041 -0.0171663)
(1.0258 0.0128261 -0.0142883)
(1.01798 0.0127568 -0.0173315)
(1.00198 0.0124259 -0.0329647)
(1.0084 0.029435 -0.0427907)
(1.04066 0.0267147 -0.0266169)
(1.06773 0.00105014 -0.00088427)
(1.07878 -0.0236035 0.0128062)
(1.08619 -0.054675 0.0108246)
(1.08243 -0.0755362 -0.0191565)
(1.08727 -0.0644256 -0.0445226)
(1.10346 -0.0407582 -0.0500347)
(1.11903 -0.000272003 -0.0499503)
(1.14433 0.0228329 -0.0418108)
(1.1678 0.0133255 -0.0323824)
(1.20447 -0.00870263 -0.01294)
(1.24967 -0.0192241 0.0284513)
(1.26192 -0.0121997 0.0562493)
(1.24671 0.00465792 0.0704538)
(1.23316 0.00996424 0.0835992)
(1.21055 0.00938503 0.0937778)
(1.17741 0.00984749 0.110016)
(1.07858 0.0197957 0.104329)
(1.00511 0.00188126 -0.00067921)
(1.00013 0.00652378 -0.00839742)
(1.01089 0.00744247 -0.0179987)
(1.02622 0.0169175 -0.0153278)
(1.0144 0.015916 -0.0192003)
(1.00151 0.0143118 -0.0346437)
(1.00533 0.0242243 -0.0467236)
(1.02402 0.0243894 -0.0330015)
(1.04409 0.00621026 -0.00695442)
(1.05456 -0.0136453 0.0123767)
(1.06423 -0.0390817 0.00975266)
(1.07056 -0.0514717 -0.0136557)
(1.08247 -0.0349052 -0.0318243)
(1.10716 -0.0273038 -0.0366687)
(1.11666 0.00590427 -0.0308818)
(1.11414 0.0307746 -0.0144785)
(1.11811 0.0434732 0.00171394)
(1.15014 0.0473507 0.0225798)
(1.20023 0.0320888 0.0554529)
(1.22421 0.0215454 0.0790189)
(1.21506 0.024982 0.0862737)
(1.19829 0.02675 0.0957684)
(1.16956 0.0195605 0.107595)
(1.13093 0.0166622 0.119713)
(1.05965 0.0436885 0.120356)
(1.00574 0.0023939 -0.000821906)
(1.00027 0.00731585 -0.0087079)
(1.01179 0.00930696 -0.0177324)
(1.02494 0.0167044 -0.0161641)
(1.00973 0.0103786 -0.0226312)
(0.998152 0.0013335 -0.0371853)
(1.00234 0.00110247 -0.051906)
(1.02126 0.0093408 -0.0423959)
(1.04127 0.00555574 -0.0118463)
(1.04862 -0.0107945 0.0180768)
(1.05896 -0.034432 0.0215472)
(1.07545 -0.0515183 0.000884789)
(1.0882 -0.0339631 -0.0134322)
(1.11009 -0.0414736 -0.00800481)
(1.12873 -0.0455508 -0.00476575)
(1.13424 -0.0305211 0.00134655)
(1.13112 -0.00115793 0.0121533)
(1.13431 0.0186763 0.0235478)
(1.16706 0.0148551 0.0373)
(1.19539 0.0152136 0.052535)
(1.19451 0.0171321 0.062066)
(1.18108 0.0113985 0.0745627)
(1.15743 0.00103814 0.0879414)
(1.12701 -0.0188007 0.096782)
(1.05142 -0.0140742 0.0971171)
(1.00641 0.00276521 -0.00101368)
(1.00001 0.00823201 -0.00819902)
(1.01152 0.0092838 -0.0190109)
(1.02232 0.0175873 -0.0149118)
(1.00228 0.0133268 -0.0226453)
(0.992849 0.000835804 -0.0340034)
(1.00723 0.00818249 -0.0450171)
(1.0315 0.032482 -0.0356737)
(1.04607 0.0311973 0.00153759)
(1.04941 -0.00440476 0.038587)
(1.0595 -0.0318069 0.0415202)
(1.08561 -0.0542746 0.0162383)
(1.10382 -0.0470957 -0.00338286)
(1.12251 -0.0375369 0.0053191)
(1.15013 -0.0441841 0.00563407)
(1.16802 -0.0312906 0.00274504)
(1.16684 -0.00242232 0.00343119)
(1.15382 0.0183355 0.00774419)
(1.17003 0.0221668 0.0119781)
(1.19134 0.0278333 0.0223479)
(1.18988 0.0332693 0.0358208)
(1.18185 0.0280243 0.0565926)
(1.16379 0.0230665 0.0777178)
(1.1524 0.00975486 0.093729)
(1.04822 -0.0197986 0.0958348)
(1.00701 0.0028792 -0.000994447)
(0.999297 0.00918386 -0.00763211)
(1.0116 0.00995757 -0.0197817)
(1.02158 0.018613 -0.0105296)
(0.99501 0.0204128 -0.0214958)
(0.989548 0.00799686 -0.0311421)
(1.01829 0.0176514 -0.0365356)
(1.03786 0.0424372 -0.0233585)
(1.03093 0.0282162 0.00805748)
(1.02632 -0.0198332 0.0394291)
(1.04351 -0.0448086 0.0357305)
(1.07716 -0.0527845 0.00885523)
(1.10854 -0.0543308 -0.0156878)
(1.12745 -0.0263903 -0.011944)
(1.15062 -0.0225166 -0.0104776)
(1.17256 -0.0136735 -0.0142518)
(1.16993 0.00283491 -0.0148344)
(1.15004 0.0259187 -0.0145277)
(1.15807 0.032053 -0.0128383)
(1.17435 0.0255887 -0.00932841)
(1.17031 0.032505 0.00287781)
(1.16732 0.041227 0.0338582)
(1.16041 0.0377023 0.0606972)
(1.1759 0.0310859 0.0818789)
(1.08727 -0.00187745 0.10149)
(1.00716 0.0029926 -0.000625618)
(0.998924 0.00985936 -0.00687819)
(1.01111 0.0110003 -0.0197373)
(1.02192 0.018551 -0.0064415)
(0.99087 0.0261953 -0.0204447)
(0.986 0.0220292 -0.0302407)
(1.02131 0.0260264 -0.0318162)
(1.02846 0.0349323 -0.0166069)
(0.999863 0.00991275 0.0113099)
(0.993724 -0.0281778 0.0320894)
(1.02548 -0.0400936 0.0212768)
(1.06573 -0.0295445 0.00108854)
(1.10897 -0.0317878 -0.016106)
(1.13208 -0.00921162 -0.0161599)
(1.15034 0.00716277 -0.014277)
(1.17198 0.00517448 -0.0158551)
(1.17157 -0.000598784 -0.00813856)
(1.15254 0.0176952 -0.00641829)
(1.15087 0.0267756 -0.00858518)
(1.16357 0.0111732 -0.00902424)
(1.16425 0.00625076 -0.00483733)
(1.15903 0.0236016 0.024741)
(1.14947 0.0312072 0.0514314)
(1.17116 0.0324821 0.0696495)
(1.12886 0.00995442 0.0951747)
(1.00718 0.00305182 4.90071e-05)
(0.998233 0.0106751 -0.00601531)
(1.01099 0.0105672 -0.0176503)
(1.02381 0.0223466 -0.00336452)
(0.991573 0.0307547 -0.0183376)
(0.984965 0.0345788 -0.0305955)
(1.01452 0.0338841 -0.0319644)
(1.00979 0.0241361 -0.018202)
(0.972785 -0.0061593 0.00748473)
(0.973024 -0.0267856 0.0184727)
(1.02131 -0.0251775 0.00750009)
(1.06605 -0.0119392 -0.00132109)
(1.11132 -0.00790563 -0.00517595)
(1.14032 -0.00306437 -0.00940078)
(1.15006 0.0203352 -0.0109293)
(1.16127 0.00495289 -0.010392)
(1.16813 -0.007883 -0.000663984)
(1.15948 0.00760726 0.00106467)
(1.15204 0.0230097 -0.00256704)
(1.15509 0.0196383 -0.000368532)
(1.15834 0.00886924 -0.00116404)
(1.15722 0.00577868 0.0219925)
(1.14297 0.00907439 0.0465539)
(1.1494 0.0154647 0.0607236)
(1.13195 1.78533e-06 0.0839236)
(1.00689 0.00325725 0.00115963)
(0.997295 0.0111305 -0.00516437)
(1.01208 0.0107507 -0.0144302)
(1.02644 0.0237585 -0.0005177)
(0.991972 0.0268267 -0.0150086)
(0.981899 0.0335905 -0.0302169)
(1.00587 0.0354765 -0.0345772)
(0.994082 0.0185559 -0.0230749)
(0.958915 -0.0115369 0.00179145)
(0.972966 -0.0174935 0.00778694)
(1.03147 -0.0113987 0.00381408)
(1.07845 -0.00704896 0.00280457)
(1.12027 -0.00372904 0.00679395)
(1.15331 -0.00945 -8.20938e-05)
(1.15756 0.00439299 -0.00156695)
(1.159 0.00351715 -0.00159767)
(1.17256 0.00489895 0.0070019)
(1.1697 0.0141292 0.00972928)
(1.16005 0.025278 0.0107323)
(1.15378 0.0366086 0.0138695)
(1.14742 0.0351865 0.00959877)
(1.14508 0.0188683 0.0250805)
(1.13795 0.0068801 0.0491616)
(1.13824 0.00134196 0.0629892)
(1.11154 -0.0120605 0.0832906)
(1.00727 0.00375643 0.00231062)
(0.996671 0.0101341 -0.00335203)
(1.0123 0.011991 -0.00973953)
(1.02643 0.0197324 0.00358966)
(0.991111 0.0164939 -0.0116519)
(0.982794 0.0247632 -0.0273602)
(0.999727 0.0336981 -0.0355851)
(0.97905 0.0153547 -0.0290264)
(0.953982 -0.00943988 -0.00435338)
(0.985666 -0.006917 0.00232101)
(1.04965 -0.00337182 0.00557035)
(1.09844 -0.00720003 0.00818125)
(1.13926 -0.0071438 0.0119686)
(1.17278 -0.0102196 0.00558808)
(1.18185 -0.00754694 0.00662884)
(1.18271 0.00688214 0.0020123)
(1.18684 0.0111838 0.00675185)
(1.17859 0.0100358 0.0135329)
(1.17243 0.0221599 0.0179808)
(1.16302 0.0565774 0.0242549)
(1.14092 0.0742631 0.0188386)
(1.12994 0.0643863 0.0276981)
(1.12678 0.0472715 0.0532432)
(1.13074 0.0246666 0.0715585)
(1.09509 0.00319691 0.0859316)
(1.00832 0.00389037 0.00385379)
(0.996585 0.00865225 -0.00119539)
(1.01195 0.0125648 -0.00395853)
(1.02394 0.0147769 0.00992518)
(0.988866 0.00732752 -0.00731688)
(0.984578 0.0157015 -0.0245713)
(0.993607 0.0327807 -0.0376531)
(0.965735 0.0211744 -0.0357063)
(0.95005 0.00595968 -0.0141456)
(0.993853 0.0118668 -0.00569061)
(1.05824 0.0163582 0.000618587)
(1.10855 0.0142431 0.00516797)
(1.14941 0.0134794 0.0064979)
(1.17957 0.00729619 0.00289512)
(1.19224 0.00108053 0.00722987)
(1.19215 0.00187327 -0.00237526)
(1.18794 -0.00853128 -0.00154883)
(1.18304 -0.0172643 0.00969906)
(1.18773 -0.00798412 0.015462)
(1.17533 0.0301535 0.0175161)
(1.1333 0.0653897 0.0129591)
(1.11126 0.0798484 0.0226452)
(1.11097 0.077083 0.0531755)
(1.12264 0.0596292 0.0761644)
(1.09824 0.0400426 0.089464)
(1.00979 0.00347737 0.00537839)
(0.997731 0.00699999 0.0019407)
(1.01173 0.0111963 0.00145399)
(1.02134 0.00840367 0.015331)
(0.988622 0.00120947 -0.00209334)
(0.993414 0.0141419 -0.0193069)
(0.997595 0.0377427 -0.0343037)
(0.960735 0.0367476 -0.0366227)
(0.952916 0.0355702 -0.0195965)
(1.00697 0.0425699 -0.00688204)