/*--------------------------------*- C++ -*----------------------------------*\
  =========                 |
  \\      /  F ield         | OpenFOAM: The Open Source CFD Toolbox
   \\    /   O peration     | Website:  https://openfoam.org
    \\  /    A nd           | Version:  11
     \\/     M anipulation  |
\*---------------------------------------------------------------------------*/
FoamFile
{
    format      ascii;
    class       surfaceScalarField;
    location    "2000";
    object      phi;
}
// * * * * * * * * * * * * * * * * * * * * * * * * * * * * * * * * * * * * * //

dimensions      [0 3 -1 0 0 0 0];

internalField   nonuniform List<scalar> 
1944
(
0.008248
-0.00197662
-0.00636682
0.0119589
0.0025522
-0.0062916
0.0170231
0.00055519
-0.00564871
0.0204381
0.000790206
-0.00421527
0.0227722
0.000345703
-0.00268384
0.02401
-0.000479228
-0.000759207
0.0232323
-0.00181632
0.00259597
0.0196587
-0.00307288
0.00664757
0.0157281
0.00393311
-0.00254681
-0.00361623
0.00413998
0.000799965
-0.004309
0.00347191
0.00447584
-0.00516832
0.00202852
0.00799402
-0.00405727
0.00132027
0.0106171
-0.0031025
0.000821314
0.0115991
-0.0020789
0.000617147
0.00986479
-0.000825135
0.000743743
0.00339323
0.00270794
0.000692941
0.0195083
-0.000385317
-0.000642045
-0.00315811
0.000147907
0.00149555
-0.00766099
0.0011993
0.00322415
-0.00853739
0.00163177
0.00501656
-0.0075957
0.00174049
0.00616883
-0.00569355
0.00143631
0.00610228
-0.0029488
0.000935483
0.00400744
0.00100764
0.000262279
-0.00056664
0.0080593
-0.000776132
0.0210815
-0.00213898
0.000922213
-0.00507064
0.000983822
0.00170625
-0.00956722
0.00111882
0.00261636
-0.0104307
0.000981263
0.00350342
-0.00945684
0.000972297
0.0038711
-0.00696596
0.000903252
0.00330238
-0.00311026
0.00072931
0.0014767
0.00250448
0.000328686
-0.00180062
0.0118483
-0.000511187
0.0212427
-0.00196151
0.000952912
-0.00664109
0.000616667
0.00148892
-0.0108154
0.00071226
0.00198903
-0.0115567
0.000626074
0.00243638
-0.0103751
0.000470869
0.00248553
-0.00736171
0.000346059
0.00179258
-0.00276737
0.000349582
4.06485e-05
0.00397787
0.000278367
-0.00223047
0.0143855
-0.000265946
0.0205564
-0.00154411
0.000731512
-0.00784833
0.000474681
0.00101237
-0.0115973
0.000500695
0.00125633
-0.0121949
0.000394558
0.00143251
-0.0107682
0.000217251
0.00130299
-0.00724916
1.69446e-05
0.00059467
-0.00207671
1.74032e-05
-0.00104162
0.00551159
0.000102524
-0.00237901
0.0159147
-0.000191659
0.0194331
-0.00125569
0.000431188
-0.00856816
0.000286865
0.000534619
-0.0119913
0.000290144
0.000626844
-0.0124901
0.000203154
0.000646112
-0.0108449
5.75721e-05
0.000410791
-0.00687847
-0.00013533
-0.000335168
-0.00115876
-0.000172049
-0.00174164
0.00696114
-4.30188e-05
-0.00237303
0.0167261
-0.000179992
0.018083
-0.00102304
0.000183571
-0.00891146
0.000158362
0.000180578
-0.012138
0.000149166
0.000170406
-0.0125618
8.1781e-05
9.2996e-05
-0.0107455
-2.19188e-05
-0.000180743
-0.00644073
-0.000163956
-0.0010076
-5.58593e-05
-0.000276005
-0.00217959
0.00831391
-0.000180747
-0.00229705
0.0170728
-0.000229189
0.0166579
-0.00087192
5.39942e-05
8.84197e-05
1.87283e-05
7.06724e-05
-4.8237e-05
2.08609e-05
-0.000188408
-5.04443e-05
-0.000539746
-0.000146281
-0.00147491
-0.000292797
-0.00219532
-0.000271951
-0.00192048
-0.000321431
-0.000688502
0.00492038
-0.00657886
-0.00472952
0.0112513
-0.00806962
-0.00456882
0.0155143
-0.00566287
-0.00425673
0.018505
-0.00385885
-0.00335243
0.0208837
-0.00289836
-0.00216658
0.0231189
-0.00239466
-0.000600029
0.0255626
-0.00188002
0.0020329
0.0253381
0.00215045
0.00472384
0.0244647
0.00480866
0.000972231
-0.00599829
0.00259331
0.00350705
-0.00873268
0.00159658
0.00711452
-0.00797491
0.000728254
0.0103206
-0.0061062
0.000357899
0.0124057
-0.00438961
0.000225836
0.0129636
-0.00267834
0.000342464
0.0111945
-0.000154612
0.000788066
0.00663177
0.00626876
0.00113893
0.0287187
0.00199365
0.000867146
-0.00785825
0.00115842
0.0029282
-0.0113426
0.00175016
0.00478262
-0.0101786
0.00197917
0.0066022
-0.00793484
0.00174757
0.00764788
-0.00530783
0.00130762
0.00732013
-0.002223
0.000807475
0.00505823
0.00211533
0.000254499
0.00114831
0.00986035
-0.000456993
0.0282809
-0.000552345
0.00117095
-0.00919487
0.00115762
0.00189741
-0.0120531
0.00110625
0.00285775
-0.0112068
0.00104994
0.00383832
-0.00898638
0.0010429
0.00430382
-0.00577266
0.00090204
0.00386225
-0.00166752
0.000615064
0.00229991
0.00385145
0.000154862
-0.00024698
0.0124077
-0.000511518
0.0271967
-0.00112425
0.00111018
-0.0103672
0.000682756
0.00165831
-0.0125676
0.000680756
0.00211415
-0.0115759
0.000540741
0.00248443
-0.00930916
0.00042391
0.00248286
-0.00576615
0.000341134
0.00194483
-0.00106391
0.000283774
0.000832271
0.00515369
8.85063e-05
-0.000803076
0.0141377
-0.000360735
0.0258323
-0.000982854
0.000799747
-0.0111371
0.000446094
0.00106138
-0.0127308
0.000403467
0.00128803
-0.0116874
0.000280409
0.00141416
-0.00934279
0.000125325
0.00125342
-0.00557002
-1.82524e-05
0.000712142
-0.000471317
-3.40077e-05
-0.000172256
0.00618989
-4.94597e-05
-0.00120178
0.0152781
-0.00030268
0.0242062
-0.000831586
0.00047278
-0.0115708
0.000247512
0.000561158
-0.0127383
0.000209509
0.000643075
-0.0116834
0.000117629
0.000624509
-0.00925121
-1.50495e-05
0.000388857
-0.00529419
-0.000175316
-0.000124648
0.000100016
-0.000229898
-0.000849076
0.00704768
-0.000176506
-0.0014124
0.015951
-0.00028979
0.022483
-0.000712355
0.000214125
-0.0117583
0.000131492
0.000214373
-0.012691
0.000101639
0.000196528
-0.0116173
3.37807e-05
9.17757e-05
-0.00910296
-6.51689e-05
-0.00018159
-0.00497802
-0.000206635
-0.000696069
0.00066287
-0.000324401
-0.00131189
0.00776419
-0.000281514
-0.0015058
0.0162231
-0.000307449
0.0207226
-0.000617489
7.73685e-05
8.17272e-05
5.60953e-05
5.73587e-05
-1.67016e-05
3.2048e-06
-0.000176585
-7.26913e-05
-0.000486707
-0.000175526
-0.00100527
-0.000298054
-0.00144209
-0.00030873
-0.00131787
-0.000311813
-0.000481218
0.00448725
-0.00653024
-0.00264977
0.0116916
-0.00918449
-0.00258548
0.0158666
-0.0060027
-0.00243126
0.0185813
-0.00410717
-0.00196218
0.0208302
-0.00314115
-0.00127568
0.0232209
-0.00266405
-0.000327203
0.0261701
-0.00207419
0.00115847
0.0250367
0.00324599
0.00261278
0.0266613
0.00318515
0.00323253
-0.00847152
0.00132519
0.00495478
-0.0100743
0.000768181
0.00811209
-0.00866805
0.000235996
0.0109097
-0.00657335
2.53824e-05
0.0126535
-0.00466975
9.8577e-06
0.0128832
-0.00271499
0.000163379
0.0107499
0.000326114
0.00052144
0.00607982
0.00811864
0.00093736
0.0326111
0.00212434
0.0014148
-0.00980133
0.00108591
0.00356829
-0.0117954
0.00132256
0.00545462
-0.00982562
0.00125164
0.0070727
-0.00745236
0.0010083
0.00784715
-0.00485588
0.000718868
0.00718422
-0.0016809
0.000436154
0.00453358
0.00307249
0.000158943
0.000373937
0.0119134
-9.16754e-05
0.0320313
0.000401683
0.00108662
-0.0104577
0.000736334
0.00182931
-0.0121506
0.000723039
0.00289436
-0.0105777
0.000739035
0.00391232
-0.00814719
0.000720271
0.0043066
-0.00492992
0.000581734
0.00369077
-0.000805291
0.000355165
0.00189625
0.00496932
5.25205e-05
-0.000763685
0.0143301
-0.000268235
0.0303674
-0.000224096
0.0010571
-0.0112916
0.000464475
0.00158706
-0.012438
0.000441085
0.00205586
-0.0108688
0.00036475
0.00240414
-0.00837535
0.000304541
0.00235004
-0.00478148
0.000246967
0.00172399
-5.89486e-05
0.000163422
0.000500493
0.00628643
-5.20925e-06
-0.00108923
0.0157994
-0.000240481
0.0285683
-0.000273061
0.000762157
-0.011894
0.000288324
0.00100714
-0.0125317
0.000253586
0.00123638
-0.0109923
0.000175598
0.00132936
-0.00841838
7.59845e-05
0.00110748
-0.00456789
-9.72988e-06
0.0004936
0.000561499
-4.05782e-05
-0.000442327
0.00726388
-9.11162e-05
-0.00140456
0.016695
-0.000236211
0.0265942
-0.000262181
0.000452742
-0.0122581
0.000159566
0.000535826
-0.012535
0.000130226
0.000606325
-0.0110112
6.65639e-05
0.000548593
-0.00834855
-2.67574e-05
0.000256436
-0.0043176
-0.000133261
-0.000309793
0.00107723
-0.000179398
-0.00105259
0.00800548
-0.000175424
-0.00156254
0.017162
-0.000247061
0.0245786
-0.000259488
0.00020588
-0.0124155
8.2818e-05
0.000202619
-0.012491
6.08796e-05
0.000174235
-0.010961
1.20915e-05
3.21147e-05
-0.00820996
-6.14816e-05
-0.000291427
-0.00403806
-0.00016257
-0.000831279
0.00153521
-0.000242546
-0.00144362
0.00857739
-0.000241162
-0.00159456
0.0172696
-0.000264207
0.0226175
-0.000250959
7.48049e-05
5.34112e-05
5.24601e-05
3.38625e-05
-3.13225e-05
-6.44786e-06
-0.000219059
-6.45979e-05
-0.000557255
-0.000142855
-0.00105618
-0.000223946
-0.00149271
-0.000247171
-0.00135077
-0.000251509
-0.000215419
0.00445901
-0.00630771
-0.000800782
0.0120066
-0.00931503
-0.000816961
0.0161917
-0.005843
-0.000773322
0.0188185
-0.00395987
-0.000629915
0.0210251
-0.00307486
-0.000408197
0.0234824
-0.00268914
-9.56937e-05
0.0263912
-0.00212905
0.000378829
0.0246229
0.00354556
0.000835973
0.0267326
0.00107609
0.00408622
-0.00946147
0.000403287
0.00558914
-0.0102914
0.000243711
0.00858597
-0.00866862
6.51315e-05
0.0111969
-0.00653804
-7.70703e-06
0.0127529
-0.00461392
-7.53544e-06
0.0127698
-0.00259606
5.3134e-05
0.0103375
0.000641775
0.000182963
0.00547059
0.00899672
0.000353504
0.033485
0.000842761
0.00163853
-0.0104143
0.000412946
0.00397831
-0.0117865
0.00048158
0.0058396
-0.00969844
0.00042129
0.00728941
-0.00730304
0.000323665
0.00783903
-0.00467063
0.000225806
0.00690343
-0.00136146
0.000137004
0.00393333
0.00371396
5.69069e-05
-0.000446942
0.0132753
1.02721e-05
0.0331729
0.000267002
0.00104878
-0.0109432
0.000223173
0.0018733
-0.0121375
0.000252832
0.00298409
-0.0103335
0.000264836
0.00395275
-0.00780095
0.000249959
0.00420629
-0.00453775
0.000195367
0.00337882
-0.000292333
0.000113439
0.00132633
0.00580624
1.27331e-05
-0.00148096
0.0158877
-7.33446e-05
0.0314439
2.39441e-05
0.00102607
-0.011654
0.000152252
0.00154339
-0.0123593
0.000147312
0.00199779
-0.0105495
0.00012733
0.00230131
-0.00790839
0.000108951
0.00216397
-0.00424016
8.68657e-05
0.00139801
0.000586354
5.06754e-05
-6.60922e-06
0.00721636
-1.07406e-05
-0.00162893
0.0173462
-7.66775e-05
0.0295602
-1.83232e-05
0.000734663
-0.0121928
9.36566e-05
0.000962785
-0.012417
8.39035e-05
0.00116968
-0.0106386
5.8354e-05
0.00121237
-0.00789894
2.42112e-05
0.000910122
-0.00394275
-4.74205e-06
0.000186092
0.00128905
-1.92288e-05
-0.00087892
0.00823162
-4.14041e-05
-0.00183015
0.0181439
-8.27297e-05
0.0274991
-3.13188e-05
0.000433354
-0.0125186
5.1865e-05
0.000501952
-0.0123975
4.2232e-05
0.000548844
-0.0106387
1.99694e-05
0.000445485
-0.00780837
-1.37654e-05
8.41111e-05
-0.0036633
-5.12308e-05
-0.000571212
0.00183393
-6.89341e-05
-0.00140874
0.00896538
-7.16942e-05
-0.00190394
0.018483
-9.10175e-05
0.0253797
-4.41026e-05
0.000193617
-0.012655
2.54482e-05
0.000180058
-0.0123414
1.83043e-05
0.00013186
-0.0105792
7.82371e-07
-4.94099e-05
-0.00766196
-2.65285e-05
-0.000433042
-0.0033791
-6.30708e-05
-0.00103828
0.0022881
-9.146e-05
-0.00171773
0.00949813
-9.44839e-05
-0.00185681
0.018456
-9.81805e-05
0.0233221
-5.01756e-05
6.78528e-05
1.82184e-05
3.71328e-05
1.06581e-05
-6.27877e-05
-4.53855e-06
-0.00028057
-2.66011e-05
-0.000663597
-5.58657e-05
-0.00119866
-8.50412e-05
-0.00167861
-9.47522e-05
-0.00153957
-9.07937e-05
-4.50905e-05
0.0044533
-0.00620459
0.000984186
0.0121202
-0.00935957
0.000875472
0.0163131
-0.00578749
0.000820374
0.0189183
-0.0038994
0.000663911
0.021114
-0.00303971
0.000435562
0.0235838
-0.00268469
0.000119157
0.0264528
-0.00213206
-0.000358141
0.0244767
0.00363246
-0.000820035
0.0266249
-0.00107197
0.00432923
-0.00974701
-0.000380212
0.005772
-0.0103515
-0.000206468
0.00873034
-0.0086573
-2.43064e-05
0.0112885
-0.00650389
3.82085e-05
0.012785
-0.0045749
3.10141e-05
0.0127295
-0.00254199
-3.4089e-05
0.0101962
0.000751603
-0.000167416
0.00525858
0.00926562
-0.000341834
0.0335633
-0.000836933
0.00172891
-0.0105765
-0.000483854
0.00412295
-0.0117996
-0.000463915
0.00596194
-0.00968232
-0.000393391
0.00735142
-0.0072642
-0.000305809
0.0078219
-0.00460756
-0.000212076
0.00678894
-0.00124654
-0.000125521
0.00370551
0.0039395
-4.75297e-05
-0.00075073
0.0137358
-3.54055e-06
0.0333437
-0.00026412
0.00104874
-0.011085
-0.000312909
0.0019011
-0.0121354
-0.000263582
0.00301889
-0.0102716
-0.000264025
0.00395926
-0.00770251
-0.000252139
0.00415494
-0.00441281
-0.000195063
0.00324454
-0.000111854
-0.000110837
0.00109347
0.00611226
-8.9259e-06
-0.00176013
0.016439
7.69996e-05
0.0316298
-2.22619e-05
0.00101813
-0.0117588
-0.000190623
0.00152679
-0.0123295
-0.000167117
0.00197193
-0.0104515
-0.000138054
0.00225563
-0.00775901
-0.000118231
0.00208171
-0.00405866
-9.33428e-05
0.00125643
0.000818099
-5.39817e-05
-0.000220631
0.00756819
1.03938e-05
-0.00184801
0.0179117
7.79595e-05
0.0297442
1.92589e-05
0.000723299
-0.0122772
-0.00011137
0.000944761
-0.0123734
-9.38758e-05
0.00113959
-0.0105221
-6.59705e-05
0.00116029
-0.00772308
-3.24021e-05
0.000823275
-0.0037233
-3.03877e-06
5.14437e-05
0.00155735
1.33719e-05
-0.00106838
0.008608
3.85943e-05
-0.00200866
0.018687
8.2215e-05
0.0276726
3.16054e-05
0.000425006
-0.0125885
-6.22417e-05
0.000486987
-0.0123442
-4.9184e-05
0.000523044
-0.0105122
-2.60546e-05
0.000399854
-0.00762093
7.27726e-06
7.45552e-06
-0.00342645
4.43474e-05
-0.000689099
0.00212214
6.28344e-05
-0.00157073
0.00935008
6.78427e-05
-0.00205334
0.0189892
8.93615e-05
0.0255312
4.38727e-05
0.000188128
-0.0127176
-3.40683e-05
0.000169814
-0.0122833
-2.45705e-05
0.000112525
-0.0104478
-6.39919e-06
-8.60328e-05
-0.00746986
2.09261e-05
-0.000496881
-0.00313604
5.73485e-05
-0.00113639
0.00258398
8.62044e-05
-0.00185102
0.00987967
9.05483e-05
-0.00197886
0.0189229
9.59725e-05
0.0234525
4.963e-05
6.38026e-05
-1.84696e-05
2.91856e-05
-1.20982e-05
-7.82025e-05
2.29952e-06
-0.000309543
2.36618e-05
-0.0007139
5.23333e-05
-0.00127304
8.10008e-05
-0.00177899
9.1304e-05
-0.00163565
8.8471e-05
4.44058e-05
0.00439574
-0.00639378
0.00302446
0.0119999
-0.0094099
0.00269426
0.0161895
-0.00586027
0.00248855
0.0188183
-0.0039623
0.00199586
0.0210257
-0.0030734
0.00130053
0.0234834
-0.00268729
0.000348276
0.0263914
-0.00212698
-0.00113937
0.0246218
0.00354868
-0.00259932
0.0267357
-0.00318608
0.00414384
-0.00948769
-0.00143179
0.00559784
-0.0103574
-0.000715852
0.008584
-0.00869446
-0.00017733
0.0111938
-0.0065431
8.51564e-06
0.0127513
-0.0046129
1.29388e-05
0.0127688
-0.00259337
-0.000145614
0.0103362
0.000645441
-0.000507193
0.00546891
0.00900204
-0.000927939
0.0334907
-0.00212302
0.00167756
-0.0103472
-0.00131318
0.00400222
-0.0117923
-0.00136186
0.00584628
-0.0097065
-0.00122705
0.00728869
-0.00730295
-0.000988563
0.00783681
-0.00466899
-0.000704087
0.00690128
-0.00135839
-0.000424967
0.00393116
0.00371824
-0.00015023
-0.00044918
0.0132817
9.71513e-05
0.033179
-0.000401698
0.00104971
-0.010884
-0.000827903
0.00188533
-0.0121229
-0.000772909
0.00299365
-0.0103289
-0.000752712
0.00395447
-0.00779465
-0.000722242
0.00420503
-0.00453345
-0.000581411
0.00337703
-0.00028829
-0.000353009
0.0013243
0.00581112
-4.90881e-05
-0.00148313
0.0158949
0.000271223
0.0314498
0.000223806
0.00103752
-0.0116249
-0.000489593
0.00155044
-0.0123463
-0.000459073
0.00200031
-0.0105435
-0.000374867
0.00230156
-0.00790179
-0.00031314
0.00216319
-0.00423522
-0.000253464
0.00139674
0.000591083
-0.000167009
-8.30095e-06
0.00722185
4.68788e-06
-0.00163066
0.0173538
0.000241402
0.0295659
0.000272498
0.000736062
-0.0121713
-0.000302714
0.000965376
-0.012406
-0.000264698
0.00117054
-0.0106318
-0.000183608
0.00121283
-0.00789342
-8.34767e-05
0.000909821
-0.00393795
2.52755e-06
0.000185236
0.00129407
3.49194e-05
-0.000880245
0.00823752
8.83937e-05
-0.00183145
0.0181516
0.00023558
0.0275047
0.000261327
0.000435173
-0.0125011
-0.000169121
0.000503704
-0.0123872
-0.000137453
0.000549861
-0.0106322
-7.24119e-05
0.000446154
-0.00780366
2.09381e-05
8.41828e-05
-0.0036589
0.000127132
-0.000571721
0.00183895
0.000173809
-0.00140972
0.00897146
0.000171891
-0.00190492
0.0184907
0.000245469
0.0253853
0.000258393
0.000194859
-0.0126399
-9.11721e-05
0.000181498
-0.012332
-6.70119e-05
0.000133063
-0.010573
-1.75028e-05
-4.8514e-05
-0.00765765
5.63363e-05
-0.000432634
-0.00337497
0.000157486
-0.00103857
0.00229322
0.000237875
-0.0017185
0.00950426
0.000237687
-0.00185758
0.0184636
0.000262169
0.0233276
0.000249755
6.83859e-05
-5.38118e-05
3.78286e-05
-3.53389e-05
-6.21801e-05
4.33321e-06
-0.000280136
6.19325e-05
-0.000663342
0.000139738
-0.00119896
0.00022038
-0.00167927
0.000244165
-0.00154021
0.000249358
0.000214267
0.00422321
-0.00628856
0.00511851
0.0116532
-0.00949587
0.00478581
0.0158616
-0.00601935
0.00431445
0.0185846
-0.0041061
0.00337696
0.0208348
-0.00313443
0.0021833
0.0232262
-0.00265888
0.000614081
0.0261716
-0.00206868
-0.0020172
0.0250367
0.00325267
-0.00471805
0.0266674
-0.00481775
0.00358645
-0.00821248
-0.00305835
0.00492154
-0.0101793
-0.00135918
0.00808467
-0.0087248
-0.000630487
0.0108953
-0.00658675
-0.000317151
0.0126488
-0.00466735
-0.00020666
0.0128816
-0.00270914
-0.000327947
0.0107484
0.000334024
-0.000776859
0.00607827
0.00812863
-0.00113413
0.0326217
-0.00199966
0.00166179
-0.00965394
-0.00158303
0.003626
-0.0117136
-0.00180702
0.00544718
-0.00984286
-0.00192844
0.00706004
-0.00745694
-0.00172772
0.00783936
-0.00485484
-0.00129383
0.00717944
-0.00167526
-0.000798021
0.00453032
0.00308067
-0.000247432
0.00037123
0.0119247
0.000460148
0.0320429
0.000548204
0.00114295
-0.0103815
-0.00128032
0.00187787
-0.0120877
-0.00114582
0.00290596
-0.0105642
-0.00106169
0.00391082
-0.00813755
-0.00104629
0.00430257
-0.00492386
-0.000903476
0.00368744
-0.000798094
-0.000614623
0.00189343
0.00497815
-0.000152344
-0.000766394
0.0143425
0.000513315
0.0303786
0.00112162
0.00106162
-0.0112315
-0.000705845
0.00160248
-0.0124021
-0.000689086
0.00206258
-0.0108537
-0.000548096
0.00240528
-0.00836352
-0.000430876
0.00234888
-0.00477355
-0.000347657
0.00172227
-5.05732e-05
-0.00028783
0.000498415
0.00629603
-8.92519e-05
-0.00109129
0.0158124
0.000361174
0.028579
0.000980732
0.000766551
-0.0118435
-0.000458431
0.00101314
-0.0125051
-0.000409563
0.00123894
-0.0109781
-0.00028597
0.00133102
-0.00840876
-0.000130979
0.00110773
-0.00456012
1.2192e-05
0.000492874
0.000570102
2.90831e-05
-0.000443692
0.00727393
4.70925e-05
-0.00140592
0.0167081
0.000302073
0.0266048
0.000829571
0.000456477
-0.0122141
-0.000255999
0.000540054
-0.0125109
-0.000216098
0.000608962
-0.0109979
-0.000122167
0.000550518
-0.00834036
1.06145e-05
0.000257339
-0.00431061
0.000170649
-0.000309858
0.00108555
0.000225548
-0.00105337
0.00801559
0.000173748
-0.00156341
0.0171751
0.000288538
0.0245894
0.000710475
0.000208096
-0.0123759
-0.000138324
0.000205843
-0.0124691
-0.000107128
0.000177083
-0.0109483
-3.8728e-05
3.43648e-05
-0.00820248
6.09554e-05
-0.000289978
-0.00403163
0.00020277
-0.000831027
0.00154358
0.000320901
-0.00144411
0.00858737
0.000279004
-0.00159519
0.0172825
0.000305937
0.0226281
0.000615765
7.63142e-05
-8.25084e-05
5.41091e-05
-5.874e-05
-2.98412e-05
-5.02111e-06
-0.000217891
7.05639e-05
-0.000556193
0.000173142
-0.00105607
0.000295304
-0.00149317
0.00030659
-0.00135132
0.000310142
0.000479829
0.00382207
-0.00458171
0.00614354
0.011192
-0.00898664
0.0064849
0.01553
-0.00559906
0.00558626
0.0185311
-0.00384722
0.0042295
0.0209068
-0.00287824
0.00268385
0.0231391
-0.00238387
0.00076339
0.0255698
-0.00186623
-0.00258391
0.0253419
0.00216359
-0.00665589
0.0244683
-0.00394613
0.00196261
-0.00473542
-0.00487087
0.00315605
-0.0092666
-0.00227373
0.00700336
-0.00812876
-0.00192826
0.0102842
-0.00615338
-0.00128009
0.0123978
-0.00438987
-0.000803228
0.012963
-0.00267033
-0.00060521
0.0111969
-0.000140359
-0.000736642
0.00663359
0.00628277
-0.000691132
0.028727
0.000374391
0.00174591
-0.00753935
-0.000670897
0.00296224
-0.0112706
-0.00103854
0.004759
-0.0102206
-0.00162222
0.00657067
-0.00795415
-0.0017284
0.00763326
-0.00530946
-0.00143115
0.00731332
-0.00221544
-0.000930491
0.00505686
0.00212733
-0.000257832
0.00114827
0.00987408
0.000777395
0.0282901
0.00213302
0.00133088
-0.00905199
-0.00114795
0.00197522
-0.0119939
-0.00107943
0.00287869
-0.011191
-0.000997406
0.00383621
-0.00897984
-0.000976525
0.0042987
-0.00576707
-0.000906593
0.00385908
-0.0016585
-0.000730682
0.00229913
0.00386292
-0.000327312
-0.000246741
0.0124214
0.000511877
0.027207
0.00195793
0.00112852
-0.0102517
-0.000647036
0.00167672
-0.0125216
-0.000717116
0.00212662
-0.0115559
-0.000637041
0.00248928
-0.00929822
-0.00047678
0.00248311
-0.00575826
-0.000350345
0.00194434
-0.00105417
-0.000353054
0.000832309
0.00516505
-0.000279082
-0.000802514
0.0141516
0.000265916
0.0258439
0.00154134
0.000811037
-0.0110386
-0.000485219
0.00106898
-0.0126848
-0.000506746
0.00129281
-0.0116688
-0.000399094
0.00141813
-0.00933312
-0.000222453
0.00125549
-0.00556278
-2.10697e-05
0.000713022
-0.000461877
-2.07446e-05
-0.00017143
0.00620089
-0.000104226
-0.00120087
0.0152921
0.000191044
0.0242192
0.00125341
0.000479848
-0.0114824
-0.000293424
0.000569579
-0.0126946
-0.000297338
0.000648058
-0.0116646
-0.000205832
0.000628443
-0.00924253
-6.10369e-05
0.000391697
-0.00528808
0.000132398
-0.000122993
0.00010855
0.000169742
-0.000847727
0.00705802
4.13291e-05
-0.00141132
0.0159651
0.000179105
0.022497
0.00102128
0.000218534
-0.0116772
-0.000162945
0.000220105
-0.0126506
-0.000153358
0.000201798
-0.011598
-8.75236e-05
9.61247e-05
-0.0090949
1.86725e-05
-0.000178082
-0.00497284
0.000161635
-0.000694103
0.000671339
0.000274097
-0.00131048
0.00777405
0.000179393
-0.00150488
0.0162372
0.000228228
0.0207374
0.000870582
7.94799e-05
-8.93543e-05
5.88089e-05
-7.17995e-05
-1.41017e-05
-2.18965e-05
-0.000174324
4.90516e-05
-0.000483923
0.000144738
-0.00100374
0.000290919
-0.00144115
0.000270767
-0.00131724
0.000320431
0.000687957
0.00328916
0.00295805
0.0126863
-0.00289672
0.0170913
0.00120084
0.0205978
0.000730271
0.0228555
0.000428241
0.0240802
-0.000461933
0.0232637
-0.00176888
0.0196672
-0.00306146
0.0157202
-0.00141603
-0.000570897
-0.000426181
-0.00615479
0.00422859
-0.00536244
0.00788242
-0.00419059
0.0106136
-0.00310016
0.011608
-0.00205941
0.00989236
-0.00078991
0.00341559
0.00272331
0.0195099
0.00121841
-0.00252772
0.00161142
-0.00758789
0.00325052
-0.00861503
0.00496355
-0.0076245
0.00614384
-0.00570731
0.00609147
-0.0029354
0.00401451
0.00102999
-0.000555551
0.00807057
0.0210874
0.00112721
-0.00483264
0.00187751
-0.00942569
0.00266287
-0.010399
0.00351167
-0.00944891
0.00386532
-0.00696608
0.00330003
-0.00309961
0.001484
0.00251923
-0.00179142
0.011858
0.0212539
0.000972418
-0.00646251
0.0015338
-0.010709
0.00201435
-0.0115191
0.00244959
-0.0103616
0.00249029
-0.007357
0.00179558
-0.00275753
4.81332e-05
0.00398787
-0.00222348
0.0143955
0.0205717
0.000742485
-0.00769321
0.00102966
-0.0115052
0.00126917
-0.012159
0.00144198
-0.0107575
0.00130993
-0.00724619
0.000599785
-0.00206805
-0.0010344
0.00551786
-0.00237374
0.0159259
0.0194514
0.000439668
-0.00842745
0.000546511
-0.0119102
0.000635825
-0.0124548
0.000653857
-0.010837
0.000418242
-0.00687832
-0.000329196
-0.0011509
-0.00173513
0.00696516
-0.00236918
0.016739
0.0181035
0.000189195
-0.00878004
0.000189993
-0.0120648
0.000178091
-0.0125308
0.000101157
-0.0107416
-0.000172264
-0.00644332
-0.0010013
-4.77211e-05
-0.00217421
0.00831748
-0.00229459
0.0170877
0.0166795
5.69313e-05
2.29623e-05
-4.41971e-05
-0.000184556
-0.000532526
-0.00147011
-0.00219196
-0.00191906
)
;

boundaryField
{
    inlet
    {
        type            calculated;
        value           uniform 0;
    }
    outlet
    {
        type            calculated;
        value           nonuniform List<scalar> 
81
(
-0.00905392
-0.0118289
-0.012462
-0.0126877
-0.0127447
-0.0126729
-0.0124236
-0.0117498
-0.00892634
-0.0121734
-0.0126564
-0.0124451
-0.0122875
-0.0122259
-0.0122782
-0.0124236
-0.0126169
-0.0121027
-0.0125157
-0.0115268
-0.0108675
-0.0104811
-0.0103473
-0.010475
-0.0108551
-0.0115082
-0.0124855
-0.0105549
-0.00892082
-0.00803031
-0.00748217
-0.00728878
-0.00747798
-0.00802307
-0.00891318
-0.0105522
-0.00594312
-0.00463865
-0.00373253
-0.00308305
-0.00283988
-0.00307917
-0.00372673
-0.00463485
-0.00595061
0.00117213
0.00118667
0.00196001
0.00268426
0.00297707
0.00268946
0.00196853
0.00119556
0.00118079
0.00930628
0.00823776
0.00895232
0.00982565
0.0101996
0.00983171
0.00896207
0.00824729
0.0093101
0.0171194
0.0160892
0.0170673
0.0181562
0.0186003
0.0181637
0.0170798
0.016103
0.0171352
0.0154258
0.0191975
0.0210009
0.0216122
0.0217274
0.0216175
0.0210113
0.019212
0.0154484
)
;
    }
    lowerWall
    {
        type            calculated;
        value           uniform 0;
    }
    upperWall
    {
        type            calculated;
        value           uniform 0;
    }
}


// ************************************************************************* //
