/*--------------------------------*- C++ -*----------------------------------*\
| =========                 |                                                 |
| \\      /  F ield         | OpenFOAM: The Open Source CFD Toolbox           |
|  \\    /   O peration     | Version:  2306                                  |
|   \\  /    A nd           | Website:  www.openfoam.com                      |
|    \\/     M anipulation  |                                                 |
\*---------------------------------------------------------------------------*/
FoamFile
{
    version     2.0;
    format      ascii;
    arch        "LSB;label=32;scalar=64";
    class       volScalarField;
    location    "2.2";
    object      p;
}
// * * * * * * * * * * * * * * * * * * * * * * * * * * * * * * * * * * * * * //

dimensions      [0 2 -2 0 0 0 0];

internalField   nonuniform List<scalar> 
288632
(
47.6263
47.6177
47.6265
47.6461
47.6739
47.7087
47.7522
47.7818
47.8836
47.8203
47.999
47.9332
47.996
-0.498329
-0.410558
-0.612771
-0.383306
-0.44236
-0.370044
-0.315639
-0.259671
-0.202449
-0.144644
-0.0870419
-0.0291613
47.6198
47.6159
47.6256
47.6452
47.6731
47.708
47.7515
47.7814
47.8829
47.8201
47.9981
47.9321
47.9959
-0.498788
-0.410973
-0.614157
-0.384227
-0.443349
-0.370918
-0.316366
-0.260266
-0.20291
-0.144972
-0.0872382
-0.0292275
47.6168
47.6137
47.6238
47.6435
47.6714
47.7063
47.7499
47.7802
47.8812
47.8201
47.9965
47.9312
47.996
-0.500581
-0.413583
-0.616692
-0.386433
-0.445364
-0.372667
-0.317839
-0.261465
-0.203838
-0.145631
-0.087632
-0.0293586
47.6128
47.6107
47.6211
47.641
47.6689
47.7038
47.7474
47.7784
47.8785
47.8198
47.9938
47.9306
47.9959
-0.503929
-0.416908
-0.620433
-0.389633
-0.448356
-0.375256
-0.32003
-0.263251
-0.20522
-0.146612
-0.0882179
-0.0295532
47.6086
47.6072
47.6178
47.6377
47.6655
47.7004
47.744
47.7758
47.875
47.8193
47.9904
47.9296
47.9955
-0.508719
-0.42194
-0.625341
-0.393967
-0.452304
-0.378668
-0.322915
-0.265601
-0.207037
-0.147902
-0.0889884
-0.0298089
47.6043
47.6031
47.6138
47.6336
47.6614
47.6962
47.7398
47.7726
47.8706
47.8186
47.9863
47.9286
47.9949
-0.514822
-0.427936
-0.631328
-0.399261
-0.457131
-0.382849
-0.326452
-0.268484
-0.209265
-0.149484
-0.089933
-0.0301222
47.5996
47.5986
47.6093
47.629
47.6566
47.6913
47.7349
47.7688
47.8653
47.8178
47.9817
47.9275
47.9944
-0.522153
-0.43518
-0.638341
-0.405502
-0.462786
-0.387749
-0.330596
-0.271859
-0.211874
-0.151336
-0.091039
-0.030489
47.5947
47.5936
47.6043
47.6238
47.6512
47.6858
47.7294
47.7644
47.8594
47.8166
47.977
47.9266
47.9939
-0.530583
-0.443363
-0.64626
-0.412579
-0.469186
-0.393298
-0.335287
-0.27568
-0.214828
-0.153433
-0.092291
-0.0309042
47.5895
47.5884
47.5988
47.6181
47.6452
47.6797
47.7232
47.7595
47.8529
47.8152
47.9723
47.9259
47.9938
-0.539966
-0.452439
-0.654989
-0.420398
-0.476242
-0.399418
-0.340461
-0.279893
-0.218085
-0.155746
-0.0936714
-0.0313619
47.5841
47.5829
47.5931
47.612
47.6388
47.6731
47.7166
47.7542
47.8459
47.8129
47.9687
47.9257
47.9944
-0.55016
-0.462252
-0.664397
-0.428842
-0.483852
-0.406022
-0.346042
-0.284439
-0.221599
-0.15824
-0.0951603
-0.0318556
47.5786
47.5772
47.5871
47.6057
47.6321
47.6661
47.7096
47.7485
47.8387
47.8104
47.966
47.9261
47.9958
-0.561008
-0.472655
-0.674349
-0.437786
-0.491905
-0.413011
-0.351949
-0.289249
-0.225317
-0.160879
-0.0967358
-0.032378
47.5731
47.5715
47.581
47.5992
47.6252
47.6589
47.7023
47.7427
47.8313
47.8084
47.9638
47.9275
47.9984
-0.572341
-0.483488
-0.684693
-0.447093
-0.500281
-0.420281
-0.358093
-0.294252
-0.229184
-0.163624
-0.0983743
-0.0329213
47.5675
47.5658
47.5749
47.5926
47.6181
47.6515
47.6949
47.7368
47.8239
47.807
47.9624
47.9302
48.0026
-0.583991
-0.494582
-0.695271
-0.456621
-0.508851
-0.42772
-0.364379
-0.299371
-0.23314
-0.166432
-0.100051
-0.0334772
47.5621
47.5601
47.5689
47.586
47.611
47.6442
47.6876
47.731
47.8169
47.8062
47.9622
47.9345
48.0085
-0.595768
-0.505759
-0.705918
-0.466218
-0.517481
-0.435211
-0.370711
-0.304527
-0.237124
-0.16926
-0.101739
-0.034037
47.5569
47.5547
47.563
47.5796
47.6041
47.6369
47.6804
47.7254
47.8102
47.8061
47.9632
47.9408
48.0165
-0.607493
-0.516846
-0.716461
-0.475733
-0.526033
-0.442635
-0.376985
-0.309636
-0.241073
-0.172062
-0.103412
-0.0345917
47.552
47.5495
47.5573
47.5734
47.5974
47.6299
47.6735
47.72
47.8041
47.8069
47.9657
47.9491
48.0267
-0.618967
-0.527661
-0.72673
-0.48501
-0.534367
-0.449871
-0.383101
-0.314616
-0.244922
-0.174794
-0.105042
-0.0351323
47.5475
47.5447
47.552
47.5676
47.591
47.6232
47.6669
47.7151
47.7987
47.8084
47.9697
47.9591
48.039
-0.630011
-0.53803
-0.736555
-0.493899
-0.542345
-0.456799
-0.388956
-0.319384
-0.248606
-0.177409
-0.106603
-0.0356499
47.5434
47.5403
47.5472
47.5621
47.5851
47.617
47.6608
47.7107
47.7941
47.8106
47.9751
47.9705
48.0531
-0.640438
-0.547775
-0.745766
-0.502248
-0.549832
-0.463303
-0.394454
-0.32386
-0.252066
-0.179864
-0.108068
-0.0361358
47.5399
47.5365
47.5429
47.5573
47.5797
47.6114
47.6554
47.7067
47.7903
47.8134
47.9816
47.9829
48.0684
-0.650082
-0.556764
-0.754212
-0.509924
-0.556702
-0.469274
-0.399499
-0.327969
-0.25524
-0.182117
-0.109413
-0.0365817
47.5372
47.5333
47.5391
47.553
47.575
47.6064
47.6506
47.7034
47.7873
47.8165
47.9887
47.9957
48.0842
-0.65878
-0.564808
-0.761733
-0.516782
-0.562831
-0.474605
-0.404005
-0.331637
-0.258075
-0.184128
-0.110614
-0.0369798
47.5351
47.5308
47.536
47.5493
47.5709
47.6022
47.6465
47.7006
47.785
47.8197
47.9961
48.0081
48.0998
-0.666397
-0.571849
-0.768218
-0.522732
-0.568121
-0.479208
-0.407892
-0.334801
-0.26052
-0.185863
-0.111649
-0.037323
47.534
47.5289
47.5335
47.5464
47.5676
47.5987
47.6432
47.6984
47.7834
47.8227
48.0029
48.0195
48.1142
-0.672815
-0.57765
-0.773525
-0.527632
-0.572464
-0.482992
-0.41109
-0.337406
-0.262532
-0.187291
-0.112502
-0.0376054
47.5342
47.5278
47.5317
47.5442
47.5652
47.5961
47.6407
47.6968
47.7823
47.8252
48.0089
48.0292
48.1265
-0.677934
-0.582346
-0.777587
-0.53145
-0.575803
-0.485901
-0.413546
-0.339404
-0.264076
-0.188386
-0.113155
-0.0378217
47.534
47.5271
47.5306
47.5428
47.5635
47.5944
47.6391
47.6958
47.7817
47.8271
48.0131
48.0363
48.1359
-0.681675
-0.585419
-0.780308
-0.534033
-0.578064
-0.487864
-0.41521
-0.340759
-0.265122
-0.189129
-0.113598
-0.037968
47.5399
47.5277
47.5301
47.5422
47.5628
47.5936
47.6383
47.6954
47.7815
47.8284
48.0161
48.0399
48.1421
-0.683983
-0.58776
-0.781609
-0.535477
-0.579229
-0.488855
-0.416061
-0.34145
-0.265655
-0.189506
-0.113822
-0.0380412
47.619
47.615
47.6247
47.6443
47.6721
47.7069
47.7503
47.7801
47.8815
47.8186
47.9966
47.9309
47.9948
-0.500295
-0.412423
-0.614949
-0.385129
-0.443397
-0.371085
-0.316244
-0.259976
-0.20255
-0.144626
-0.086984
-0.0291252
47.6125
47.6131
47.6239
47.6435
47.6713
47.7062
47.7496
47.7797
47.8808
47.8194
47.992
47.9298
47.9949
-0.500722
-0.412725
-0.616345
-0.38607
-0.444404
-0.371975
-0.316983
-0.26058
-0.203017
-0.144958
-0.0871828
-0.0291923
47.6096
47.611
47.622
47.6418
47.6696
47.7045
47.748
47.7784
47.879
47.8196
47.9896
47.9289
47.9951
-0.502533
-0.415412
-0.618924
-0.388312
-0.44645
-0.373749
-0.318476
-0.261795
-0.203956
-0.145625
-0.0875812
-0.0293248
47.6056
47.608
47.6193
47.6392
47.6671
47.7019
47.7454
47.7765
47.8762
47.8195
47.9863
47.928
47.9951
-0.505932
-0.41882
-0.622731
-0.391568
-0.449489
-0.376377
-0.320698
-0.263605
-0.205355
-0.146618
-0.0881741
-0.0295217
47.6014
47.6045
47.6159
47.6358
47.6636
47.6984
47.742
47.7739
47.8725
47.8191
47.9822
47.927
47.9947
-0.510793
-0.423948
-0.627723
-0.395974
-0.453497
-0.37984
-0.323623
-0.265986
-0.207196
-0.147924
-0.0889538
-0.0297803
47.597
47.6004
47.6119
47.6318
47.6595
47.6942
47.7377
47.7705
47.8679
47.8187
47.9773
47.9258
47.9941
-0.516984
-0.430058
-0.633816
-0.401358
-0.4584
-0.384084
-0.327211
-0.268907
-0.209453
-0.149526
-0.0899099
-0.0300974
47.5923
47.5958
47.6074
47.6271
47.6546
47.6892
47.7327
47.7665
47.8623
47.8175
47.9723
47.9246
47.9933
-0.524421
-0.437436
-0.640952
-0.407705
-0.464145
-0.389058
-0.331413
-0.272328
-0.212096
-0.151402
-0.0910295
-0.0304686
47.5874
47.5909
47.6023
47.6218
47.6491
47.6835
47.7269
47.7619
47.8561
47.8154
47.9678
47.9233
47.9927
-0.532973
-0.445772
-0.649012
-0.414904
-0.470647
-0.394692
-0.336173
-0.276203
-0.215089
-0.153526
-0.0922973
-0.0308889
47.5822
47.5856
47.5969
47.6161
47.6431
47.6773
47.7206
47.7567
47.8493
47.8129
47.9634
47.9223
47.9924
-0.542492
-0.455017
-0.657899
-0.422858
-0.477818
-0.400908
-0.341423
-0.280476
-0.218391
-0.155868
-0.0936954
-0.0313524
47.5768
47.5801
47.5911
47.61
47.6366
47.6706
47.7137
47.7511
47.8419
47.81
47.9592
47.9216
47.9926
-0.552835
-0.465014
-0.667479
-0.431451
-0.485555
-0.407617
-0.347089
-0.285086
-0.221953
-0.158396
-0.0952037
-0.0318524
47.5713
47.5744
47.5851
47.6036
47.6298
47.6634
47.7065
47.7451
47.8342
47.8072
47.9555
47.9215
47.9936
-0.563843
-0.475615
-0.677615
-0.440554
-0.493744
-0.414719
-0.353086
-0.289967
-0.225723
-0.161071
-0.0968003
-0.0323816
47.5657
47.5686
47.5789
47.597
47.6227
47.656
47.699
47.7389
47.8262
47.8046
47.9523
47.9223
47.9958
-0.575349
-0.486656
-0.688154
-0.450029
-0.502263
-0.422107
-0.359326
-0.295045
-0.229646
-0.163854
-0.0984612
-0.0329322
47.5602
47.5629
47.5727
47.5903
47.6155
47.6485
47.6913
47.7326
47.8183
47.8023
47.9499
47.9242
47.9993
-0.587172
-0.497963
-0.698933
-0.45973
-0.510982
-0.42967
-0.365713
-0.300243
-0.23366
-0.166702
-0.100161
-0.0334957
47.5548
47.5572
47.5666
47.5836
47.6083
47.6409
47.6836
47.7263
47.8106
47.8006
47.9487
47.9277
48.0046
-0.59913
-0.50936
-0.709784
-0.469504
-0.519764
-0.437288
-0.372147
-0.305478
-0.237704
-0.169571
-0.101873
-0.0340633
47.5495
47.5517
47.5607
47.5771
47.6012
47.6334
47.6761
47.7201
47.8033
47.7995
47.9487
47.933
48.0118
-0.611031
-0.520663
-0.720532
-0.479196
-0.528469
-0.444839
-0.378524
-0.310668
-0.241713
-0.172415
-0.10357
-0.0346259
47.5446
47.5465
47.555
47.5708
47.5944
47.6262
47.6688
47.7143
47.7965
47.7992
47.9501
47.9403
48.0212
-0.622684
-0.53169
-0.731002
-0.488648
-0.536955
-0.452201
-0.384742
-0.315728
-0.245621
-0.175188
-0.105225
-0.0351744
47.54
47.5417
47.5497
47.5649
47.5878
47.6193
47.6619
47.7088
47.7904
47.7996
47.953
47.9493
48.0328
-0.633893
-0.542265
-0.741022
-0.497706
-0.54508
-0.459252
-0.390697
-0.320574
-0.249364
-0.177843
-0.106809
-0.0356997
47.536
47.5373
47.5448
47.5594
47.5818
47.6129
47.6555
47.7038
47.7851
47.8007
47.9572
47.9597
48.0462
-0.644482
-0.552204
-0.750417
-0.506215
-0.552707
-0.465872
-0.396289
-0.325124
-0.252879
-0.180336
-0.108297
-0.0361929
47.5325
47.5334
47.5404
47.5545
47.5763
47.607
47.6497
47.6993
47.7807
47.8024
47.9625
47.971
48.0608
-0.654274
-0.561371
-0.759033
-0.514038
-0.559706
-0.47195
-0.401422
-0.329301
-0.256105
-0.182624
-0.109663
-0.0366456
47.5297
47.5302
47.5366
47.5501
47.5714
47.6018
47.6446
47.6955
47.7771
47.8044
47.9685
47.9828
48.0761
-0.663108
-0.569574
-0.766706
-0.52103
-0.565951
-0.477379
-0.406007
-0.333032
-0.258986
-0.184668
-0.110882
-0.0370498
47.5276
47.5276
47.5334
47.5464
47.5673
47.5974
47.6402
47.6922
47.7742
47.8067
47.9747
47.9943
48.0911
-0.670836
-0.576753
-0.773324
-0.527095
-0.571342
-0.482066
-0.409963
-0.33625
-0.261472
-0.186431
-0.111934
-0.0373985
47.5265
47.5258
47.5309
47.5434
47.5639
47.5938
47.6367
47.6897
47.7721
47.8089
47.9807
48.005
48.1051
-0.677353
-0.582667
-0.778739
-0.53209
-0.575769
-0.485919
-0.413218
-0.338899
-0.263518
-0.187882
-0.1128
-0.0376853
47.5266
47.5246
47.5291
47.5412
47.5614
47.5911
47.634
47.6878
47.7707
47.8108
47.9859
48.0141
48.1169
-0.682548
-0.587447
-0.782884
-0.53598
-0.579173
-0.488881
-0.415718
-0.340932
-0.265087
-0.188995
-0.113464
-0.037905
47.5264
47.5239
47.5279
47.5397
47.5597
47.5893
47.6322
47.6865
47.7698
47.8121
47.9898
48.0206
48.126
-0.686343
-0.590582
-0.78566
-0.538613
-0.581477
-0.49088
-0.417411
-0.34231
-0.266151
-0.18975
-0.113914
-0.0380537
47.5323
47.5245
47.5275
47.5391
47.5589
47.5885
47.6314
47.686
47.7696
47.8128
47.9938
48.0232
48.1314
-0.688684
-0.592943
-0.786988
-0.540079
-0.582661
-0.491886
-0.418276
-0.343012
-0.266692
-0.190134
-0.114141
-0.038128
47.6142
47.6111
47.6211
47.6407
47.6684
47.7031
47.7464
47.7764
47.8771
47.8155
47.9919
47.927
47.9921
-0.504738
-0.417598
-0.61899
-0.388655
-0.445206
-0.372842
-0.317193
-0.260361
-0.202565
-0.144451
-0.0867746
-0.0290153
47.6078
47.6092
47.6202
47.6399
47.6676
47.7023
47.7457
47.7759
47.8763
47.8166
47.9865
47.926
47.9923
-0.505176
-0.417623
-0.620401
-0.38963
-0.446242
-0.373757
-0.317951
-0.26098
-0.203044
-0.14479
-0.0869778
-0.0290837
47.6047
47.6071
47.6183
47.6381
47.6659
47.7006
47.7439
47.7746
47.8743
47.8169
47.9837
47.9248
47.9926
-0.507049
-0.420478
-0.623064
-0.391945
-0.44835
-0.375582
-0.319485
-0.262227
-0.204006
-0.145473
-0.0873853
-0.0292191
47.6007
47.6041
47.6157
47.6355
47.6632
47.6979
47.7412
47.7725
47.8714
47.8167
47.9798
47.9238
47.9925
-0.510555
-0.424045
-0.627
-0.39531
-0.45148
-0.378286
-0.321768
-0.264083
-0.20544
-0.146489
-0.0879919
-0.0294204
47.5965
47.6005
47.6123
47.6321
47.6598
47.6943
47.7376
47.7697
47.8673
47.8164
47.9749
47.9224
47.9919
-0.515582
-0.429368
-0.632164
-0.399862
-0.455611
-0.38185
-0.324773
-0.266527
-0.207326
-0.147827
-0.0887899
-0.029685
47.5921
47.5963
47.6082
47.628
47.6555
47.6899
47.7331
47.766
47.8622
47.8155
47.9694
47.9208
47.9909
-0.521981
-0.435711
-0.638469
-0.405427
-0.460665
-0.386219
-0.328461
-0.269525
-0.209641
-0.149468
-0.0897688
-0.0300094
47.5874
47.5917
47.6036
47.6232
47.6505
47.6848
47.7278
47.7617
47.8562
47.8132
47.9641
47.919
47.9897
-0.52967
-0.44336
-0.645853
-0.411987
-0.46659
-0.391342
-0.332783
-0.273038
-0.212352
-0.151391
-0.0909157
-0.0303894
47.5824
47.5867
47.5985
47.6178
47.6448
47.6789
47.7218
47.7566
47.8494
47.8102
47.9588
47.917
47.9884
-0.538508
-0.452008
-0.654199
-0.419431
-0.473299
-0.397148
-0.337679
-0.277019
-0.215424
-0.153569
-0.0922149
-0.0308199
47.5772
47.5814
47.5929
47.612
47.6386
47.6724
47.7151
47.7509
47.8418
47.8066
47.9532
47.915
47.9871
-0.548348
-0.461598
-0.663404
-0.427658
-0.480701
-0.403555
-0.343083
-0.281411
-0.218814
-0.155972
-0.0936483
-0.0312949
47.5717
47.5759
47.5871
47.6057
47.6319
47.6653
47.7078
47.7446
47.8336
47.8028
47.9475
47.913
47.9862
-0.559042
-0.471972
-0.673332
-0.43655
-0.488692
-0.410474
-0.348918
-0.286153
-0.222473
-0.158566
-0.0951957
-0.0318076
47.5662
47.5701
47.581
47.5992
47.6249
47.6579
47.7
47.7379
47.8249
47.7987
47.9419
47.9114
47.9857
-0.570427
-0.482976
-0.68384
-0.445974
-0.497155
-0.417802
-0.355097
-0.291176
-0.226349
-0.161314
-0.0968344
-0.0323505
47.5606
47.5643
47.5747
47.5924
47.6176
47.6501
47.6919
47.7309
47.8158
47.7946
47.9365
47.9104
47.9861
-0.582329
-0.49444
-0.694771
-0.455787
-0.505963
-0.425431
-0.36153
-0.296404
-0.230383
-0.164173
-0.0985401
-0.0329157
47.555
47.5584
47.5684
47.5856
47.6101
47.6421
47.6837
47.7236
47.8067
47.7906
47.9318
47.9104
47.9876
-0.594564
-0.506186
-0.705956
-0.465839
-0.514983
-0.433243
-0.368119
-0.301758
-0.234514
-0.167102
-0.100287
-0.0334944
47.5495
47.5527
47.5622
47.5787
47.6026
47.6341
47.6753
47.7164
47.7976
47.787
47.9279
47.9116
47.9906
-0.606939
-0.518026
-0.717222
-0.475971
-0.524074
-0.441117
-0.374759
-0.307155
-0.238678
-0.170054
-0.102047
-0.0340778
47.5442
47.5471
47.5562
47.5721
47.5953
47.6262
47.6671
47.7091
47.7889
47.7838
47.9251
47.9144
47.9953
-0.619256
-0.529774
-0.728385
-0.486022
-0.533089
-0.448926
-0.381345
-0.312508
-0.242808
-0.172981
-0.103793
-0.0346563
47.5392
47.5419
47.5504
47.5656
47.5881
47.6185
47.6591
47.7022
47.7806
47.7812
47.9236
47.919
48.0019
-0.631318
-0.541238
-0.739264
-0.495828
-0.541882
-0.456543
-0.38777
-0.317729
-0.246837
-0.175837
-0.105496
-0.0352207
47.5346
47.537
47.5449
47.5595
47.5813
47.6111
47.6514
47.6955
47.773
47.7793
47.9235
47.9252
48.0105
-0.642924
-0.552232
-0.749678
-0.505227
-0.550305
-0.463841
-0.393926
-0.322733
-0.250697
-0.178573
-0.107128
-0.0357614
47.5305
47.5325
47.5399
47.5538
47.575
47.6043
47.6443
47.6894
47.7663
47.7781
47.9247
47.9324
48.0209
-0.653889
-0.562569
-0.759447
-0.514061
-0.558215
-0.470697
-0.399709
-0.327433
-0.254324
-0.181143
-0.108661
-0.0362694
47.5269
47.5286
47.5355
47.5487
47.5692
47.598
47.6378
47.6839
47.7604
47.7775
47.9272
47.9407
48.0326
-0.664031
-0.572102
-0.768408
-0.522184
-0.565476
-0.476994
-0.40502
-0.331749
-0.257654
-0.183503
-0.110069
-0.0367358
47.5241
47.5253
47.5316
47.5442
47.5641
47.5924
47.6321
47.679
47.7555
47.7775
47.9305
47.9497
48.045
-0.673178
-0.580634
-0.776391
-0.529446
-0.571958
-0.482619
-0.409765
-0.335606
-0.260629
-0.185612
-0.111327
-0.0371525
47.522
47.5227
47.5284
47.5404
47.5598
47.5876
47.6271
47.6748
47.7515
47.7778
47.9343
47.9586
48.0574
-0.681184
-0.588097
-0.783277
-0.535744
-0.577554
-0.487477
-0.413861
-0.338934
-0.263197
-0.187432
-0.112412
-0.037512
47.5209
47.5208
47.5258
47.5373
47.5562
47.5837
47.6231
47.6715
47.7484
47.7784
47.9381
47.9669
48.069
-0.687929
-0.59425
-0.788914
-0.540933
-0.582151
-0.491472
-0.417232
-0.341674
-0.265311
-0.18893
-0.113305
-0.0378079
47.5209
47.5197
47.524
47.535
47.5535
47.5808
47.6201
47.669
47.7461
47.779
47.9416
47.9738
48.0789
-0.693305
-0.599215
-0.79323
-0.544971
-0.585686
-0.494544
-0.419821
-0.343777
-0.266933
-0.19008
-0.11399
-0.0380347
47.5207
47.519
47.5227
47.5335
47.5518
47.5788
47.6181
47.6673
47.7447
47.7795
47.9444
47.979
48.0863
-0.697233
-0.602477
-0.796122
-0.547706
-0.588079
-0.496617
-0.421575
-0.345203
-0.268033
-0.190859
-0.114455
-0.0381881
47.5265
47.5196
47.5223
47.5329
47.551
47.5779
47.6171
47.6666
47.7441
47.7797
47.9475
47.9819
48.0904
-0.699653
-0.604919
-0.797511
-0.549223
-0.58931
-0.497661
-0.422471
-0.345929
-0.268592
-0.191255
-0.11469
-0.038265
47.6076
47.6055
47.6157
47.6353
47.6629
47.6974
47.7404
47.7707
47.8704
47.8105
47.9846
47.9218
47.9876
-0.512322
-0.424898
-0.624754
-0.39385
-0.447778
-0.375315
-0.318474
-0.260811
-0.202481
-0.144105
-0.0864046
-0.0288287
47.6011
47.6037
47.6148
47.6345
47.6621
47.6965
47.7396
47.7701
47.8695
47.8117
47.9786
47.9206
47.9878
-0.512812
-0.424819
-0.626215
-0.394878
-0.448858
-0.376269
-0.319262
-0.261453
-0.202977
-0.144455
-0.0866142
-0.028899
47.5981
47.6015
47.613
47.6327
47.6603
47.6947
47.7378
47.7687
47.8673
47.8121
47.9752
47.9192
47.9881
-0.514793
-0.427862
-0.629007
-0.397306
-0.451059
-0.37817
-0.320857
-0.262746
-0.203974
-0.145161
-0.0870352
-0.0290388
47.594
47.5984
47.6103
47.63
47.6575
47.6919
47.7349
47.7664
47.864
47.8119
47.9705
47.9178
47.9877
-0.518488
-0.431646
-0.633138
-0.400834
-0.454327
-0.380988
-0.32323
-0.264673
-0.205459
-0.146213
-0.0876622
-0.0292467
47.5898
47.5947
47.6068
47.6265
47.6539
47.6882
47.731
47.7632
47.8594
47.8112
47.9647
47.916
47.9867
-0.523781
-0.43726
-0.638561
-0.405607
-0.458641
-0.384704
-0.326357
-0.26721
-0.207414
-0.147598
-0.0884876
-0.02952
47.5854
47.5905
47.6027
47.6223
47.6495
47.6835
47.7262
47.7592
47.8537
47.8092
47.9588
47.9137
47.985
-0.530515
-0.443954
-0.645184
-0.411445
-0.463924
-0.389262
-0.330195
-0.270324
-0.209814
-0.149298
-0.0895006
-0.0298555
47.5806
47.5859
47.598
47.6174
47.6443
47.6781
47.7205
47.7542
47.847
47.8058
47.9527
47.911
47.9829
-0.538601
-0.452016
-0.652947
-0.418328
-0.47012
-0.394609
-0.334695
-0.273975
-0.212628
-0.15129
-0.0906882
-0.0302488
47.5756
47.5808
47.5927
47.6119
47.6384
47.6719
47.714
47.7485
47.8393
47.8015
47.946
47.9077
47.9803
-0.547899
-0.461137
-0.661726
-0.426143
-0.477142
-0.400672
-0.339798
-0.278115
-0.215818
-0.153549
-0.0920345
-0.0306945
47.5703
47.5754
47.5871
47.6058
47.6319
47.665
47.7067
47.742
47.8306
47.7966
47.9385
47.9039
47.9774
-0.558254
-0.471254
-0.671414
-0.434785
-0.484895
-0.407369
-0.345434
-0.282687
-0.21934
-0.156044
-0.093521
-0.0311867
47.5648
47.5698
47.5811
47.5994
47.625
47.6575
47.6988
47.7348
47.8211
47.7911
47.9305
47.8999
47.9742
-0.569513
-0.482203
-0.681871
-0.444131
-0.49327
-0.414606
-0.351523
-0.287627
-0.223146
-0.158738
-0.095127
-0.0317184
47.5592
47.5639
47.5749
47.5926
47.6176
47.6495
47.6903
47.727
47.8109
47.7851
47.9221
47.8957
47.9711
-0.581501
-0.493822
-0.692947
-0.454042
-0.502147
-0.422277
-0.357978
-0.292863
-0.22718
-0.161595
-0.0968292
-0.0322819
47.5535
47.558
47.5685
47.5857
47.6099
47.6412
47.6814
47.7187
47.8002
47.7786
47.9135
47.8917
47.9682
-0.594042
-0.505933
-0.704477
-0.46437
-0.511395
-0.430269
-0.364703
-0.298318
-0.231383
-0.16457
-0.0986024
-0.0328691
47.5478
47.5521
47.5621
47.5786
47.6021
47.6327
47.6722
47.7101
47.7891
47.7718
47.905
47.8881
47.9657
-0.606936
-0.518347
-0.716283
-0.474956
-0.520873
-0.43846
-0.371597
-0.30391
-0.235691
-0.16762
-0.10042
-0.0334708
47.5423
47.5462
47.5557
47.5715
47.5942
47.624
47.6628
47.7013
47.778
47.7651
47.8968
47.8854
47.9642
-0.619984
-0.530869
-0.728181
-0.485634
-0.530432
-0.446722
-0.37855
-0.30955
-0.240036
-0.170696
-0.102253
-0.0340779
47.5369
47.5406
47.5495
47.5646
47.5864
47.6154
47.6535
47.6924
47.767
47.7585
47.8895
47.8838
47.9639
-0.632975
-0.543297
-0.739979
-0.496232
-0.53992
-0.454923
-0.385453
-0.31515
-0.244349
-0.17375
-0.104073
-0.0346805
47.5319
47.5352
47.5435
47.5579
47.5788
47.607
47.6444
47.6837
47.7564
47.7522
47.8831
47.8834
47.9651
-0.645701
-0.555428
-0.751483
-0.506578
-0.54918
-0.462927
-0.392191
-0.320617
-0.24856
-0.176731
-0.10585
-0.0352688
47.5272
47.5302
47.5379
47.5515
47.5716
47.599
47.6357
47.6754
47.7464
47.7466
47.8781
47.8839
47.9681
-0.657947
-0.567067
-0.762501
-0.5165
-0.558057
-0.470603
-0.398653
-0.325859
-0.252599
-0.17959
-0.107553
-0.0358329
47.523
47.5257
47.5328
47.5456
47.5649
47.5914
47.6275
47.6675
47.7373
47.7417
47.8744
47.886
47.9726
-0.669522
-0.578012
-0.772842
-0.525829
-0.566398
-0.477817
-0.404728
-0.330787
-0.256395
-0.182277
-0.109155
-0.0363632
47.5194
47.5217
47.5282
47.5403
47.5587
47.5845
47.62
47.6603
47.7291
47.7375
47.872
47.8889
47.9785
-0.680224
-0.588106
-0.782331
-0.534411
-0.57406
-0.484447
-0.410309
-0.335315
-0.259883
-0.184747
-0.110626
-0.0368505
47.5165
47.5183
47.5242
47.5355
47.5533
47.5783
47.6132
47.6538
47.7221
47.7342
47.8708
47.8926
47.9852
-0.689877
-0.597141
-0.790788
-0.542084
-0.580903
-0.490372
-0.415299
-0.339363
-0.263002
-0.186954
-0.111942
-0.0372861
47.5144
47.5157
47.5209
47.5316
47.5486
47.573
47.6075
47.6483
47.7161
47.7315
47.8704
47.8966
47.9923
-0.698326
-0.605039
-0.798085
-0.54874
-0.586813
-0.495492
-0.419607
-0.342859
-0.265694
-0.18886
-0.113078
-0.0376621
47.5132
47.5137
47.5182
47.5283
47.5448
47.5687
47.6027
47.6437
47.7113
47.7296
47.8706
47.9004
47.999
-0.70544
-0.611552
-0.80406
-0.554224
-0.591669
-0.499703
-0.423155
-0.345738
-0.267912
-0.19043
-0.114013
-0.0379718
47.5132
47.5125
47.5163
47.5259
47.5419
47.5654
47.5991
47.6403
47.7077
47.7282
47.8711
47.9036
48.0047
-0.711107
-0.616793
-0.808639
-0.558491
-0.595406
-0.502942
-0.42588
-0.347948
-0.269614
-0.191635
-0.114731
-0.0382092
47.513
47.5118
47.5151
47.5243
47.54
47.5632
47.5967
47.638
47.7053
47.7273
47.8715
47.9061
48.0088
-0.71524
-0.620246
-0.811706
-0.56138
-0.597935
-0.505129
-0.427727
-0.349447
-0.270768
-0.192452
-0.115218
-0.03837
47.5188
47.5124
47.5146
47.5236
47.5391
47.5622
47.5956
47.6369
47.7041
47.727
47.8725
47.9076
48.0109
-0.717778
-0.622784
-0.813185
-0.562973
-0.599236
-0.50623
-0.42867
-0.35021
-0.271356
-0.192868
-0.115465
-0.0384508
47.6
47.5985
47.6088
47.6283
47.6556
47.6897
47.7324
47.763
47.8614
47.8038
47.9749
47.9146
47.981
-0.522777
-0.434593
-0.632282
-0.400728
-0.451086
-0.378443
-0.320024
-0.261266
-0.202249
-0.143552
-0.0858525
-0.0285583
47.5936
47.5966
47.6078
47.6274
47.6547
47.6888
47.7316
47.7624
47.8604
47.8051
47.9684
47.9132
47.9812
-0.523343
-0.434673
-0.633829
-0.401828
-0.452226
-0.379447
-0.320853
-0.261938
-0.202767
-0.143918
-0.0860704
-0.0286312
47.5905
47.5944
47.606
47.6255
47.6528
47.6869
47.7296
47.7607
47.8579
47.8054
47.9644
47.9116
47.9813
-0.525489
-0.437891
-0.636794
-0.404407
-0.454551
-0.38145
-0.322528
-0.263294
-0.203809
-0.144655
-0.0865091
-0.0287766
47.5864
47.5912
47.6032
47.6228
47.6499
47.6839
47.7265
47.7581
47.8541
47.8051
47.9586
47.9098
47.9806
-0.529447
-0.441942
-0.641186
-0.408157
-0.458005
-0.384421
-0.325023
-0.265314
-0.205363
-0.145753
-0.0871632
-0.0289931
47.5822
47.5875
47.5997
47.6192
47.6462
47.6799
47.7223
47.7545
47.8489
47.8034
47.9524
47.9073
47.9788
-0.535103
-0.447944
-0.646958
-0.413229
-0.462567
-0.388341
-0.328311
-0.267975
-0.207409
-0.1472
-0.0880248
-0.0292782
47.5777
47.5833
47.5955
47.6148
47.6415
47.675
47.7171
47.7499
47.8425
47.7999
47.9459
47.9041
47.9762
-0.542298
-0.455112
-0.654013
-0.419435
-0.468156
-0.393151
-0.332349
-0.271244
-0.209924
-0.148978
-0.0890831
-0.0296283
47.5729
47.5785
47.5906
47.6097
47.6361
47.6692
47.7109
47.7443
47.8348
47.7953
47.9383
47.8999
47.9727
-0.550942
-0.463736
-0.662288
-0.426756
-0.474718
-0.398799
-0.337089
-0.27508
-0.212873
-0.151064
-0.0903249
-0.0300391
47.5678
47.5734
47.5853
47.604
47.6299
47.6626
47.7037
47.7377
47.8259
47.7896
47.9296
47.8948
47.9682
-0.560881
-0.4735
-0.671654
-0.435072
-0.48216
-0.405208
-0.342467
-0.279433
-0.216221
-0.15343
-0.0917338
-0.0305051
47.5624
47.5679
47.5795
47.5978
47.6231
47.6552
47.6957
47.7301
47.8158
47.7828
47.9196
47.8886
47.9628
-0.571953
-0.484333
-0.681999
-0.444275
-0.490385
-0.412294
-0.348414
-0.284244
-0.21992
-0.156046
-0.093291
-0.0310202
47.5569
47.5621
47.5734
47.5911
47.6158
47.6471
47.6869
47.7217
47.8046
47.775
47.9084
47.8814
47.9564
-0.583995
-0.496066
-0.693175
-0.454236
-0.49928
-0.419959
-0.354845
-0.289449
-0.223922
-0.158875
-0.0949752
-0.0315772
47.5511
47.5562
47.567
47.5841
47.608
47.6385
47.6774
47.7125
47.7924
47.7661
47.896
47.8734
47.9491
-0.596829
-0.508524
-0.705023
-0.464809
-0.508718
-0.428093
-0.36167
-0.294972
-0.228168
-0.161877
-0.0967622
-0.0321684
47.5454
47.5501
47.5604
47.5768
47.5998
47.6295
47.6674
47.7025
47.7793
47.7563
47.8827
47.8647
47.941
-0.610257
-0.521517
-0.717368
-0.475836
-0.518561
-0.436576
-0.36879
-0.300733
-0.232597
-0.165008
-0.098626
-0.0327849
47.5396
47.5441
47.5538
47.5694
47.5915
47.6201
47.657
47.692
47.7656
47.7456
47.8687
47.8557
47.9323
-0.624073
-0.534844
-0.73002
-0.487149
-0.52866
-0.445279
-0.376095
-0.306644
-0.237142
-0.168221
-0.100538
-0.0334176
47.534
47.5381
47.5472
47.562
47.5831
47.6106
47.6463
47.6811
47.7516
47.7343
47.8544
47.8467
47.9234
-0.638059
-0.548295
-0.742782
-0.498569
-0.538856
-0.454068
-0.383472
-0.312614
-0.241732
-0.171465
-0.10247
-0.0340564
47.5285
47.5323
47.5408
47.5548
47.5748
47.6012
47.6356
47.67
47.7374
47.7228
47.8402
47.8375
47.9148
-0.651993
-0.561652
-0.755447
-0.509913
-0.548985
-0.462799
-0.390803
-0.318547
-0.246293
-0.174689
-0.104389
-0.0346914
47.5234
47.5268
47.5347
47.5477
47.5667
47.5919
47.625
47.659
47.7234
47.7114
47.8268
47.8288
47.9068
-0.665645
-0.574698
-0.767805
-0.520996
-0.558881
-0.471331
-0.397968
-0.324346
-0.250751
-0.177839
-0.106264
-0.0353119
47.5186
47.5217
47.5289
47.541
47.5589
47.5829
47.6148
47.6483
47.71
47.7005
47.8143
47.8206
47.9
-0.678791
-0.587219
-0.779649
-0.531631
-0.568377
-0.479519
-0.404844
-0.329911
-0.255029
-0.180864
-0.108065
-0.0359075
47.5144
47.5171
47.5236
47.5348
47.5516
47.5745
47.6052
47.638
47.6974
47.6902
47.8033
47.8136
47.8945
-0.691212
-0.598997
-0.790773
-0.541637
-0.577306
-0.487222
-0.411314
-0.335148
-0.259056
-0.183709
-0.109759
-0.036468
47.5107
47.513
47.5188
47.5292
47.545
47.5667
47.5962
47.6285
47.6859
47.6809
47.7937
47.8075
47.8902
-0.702702
-0.609858
-0.800986
-0.550844
-0.585514
-0.494305
-0.417264
-0.339965
-0.262758
-0.186326
-0.111317
-0.0369835
47.5077
47.5096
47.5147
47.5242
47.5391
47.5598
47.5883
47.6199
47.6757
47.6727
47.7856
47.8024
47.8871
-0.713065
-0.61958
-0.810093
-0.55908
-0.59285
-0.500641
-0.422586
-0.344273
-0.266071
-0.188668
-0.112711
-0.0374446
47.5055
47.5068
47.5112
47.52
47.534
47.5538
47.5814
47.6125
47.6669
47.6656
47.7788
47.7982
47.8846
-0.722133
-0.628074
-0.817953
-0.566226
-0.599189
-0.506117
-0.427185
-0.347996
-0.268933
-0.19069
-0.113915
-0.037843
47.5043
47.5048
47.5084
47.5166
47.5299
47.5489
47.5757
47.6064
47.6597
47.6597
47.7733
47.7944
47.8823
-0.729766
-0.63508
-0.824392
-0.572112
-0.6044
-0.510623
-0.430974
-0.351063
-0.271291
-0.192357
-0.114907
-0.0381713
47.5043
47.5036
47.5064
47.514
47.5268
47.5452
47.5713
47.6017
47.6541
47.6553
47.769
47.791
47.88
-0.735838
-0.640697
-0.829328
-0.57669
-0.60841
-0.51409
-0.433884
-0.353419
-0.273102
-0.193638
-0.115669
-0.0384233
47.504
47.5028
47.5051
47.5123
47.5247
47.5427
47.5684
47.5985
47.6503
47.6523
47.7657
47.7882
47.8776
-0.740259
-0.644411
-0.832636
-0.579792
-0.611126
-0.516431
-0.435857
-0.355017
-0.274331
-0.194506
-0.116186
-0.038594
47.5097
47.5034
47.5046
47.5116
47.5237
47.5416
47.567
47.597
47.6483
47.6511
47.7646
47.7856
47.8758
-0.74296
-0.647083
-0.83424
-0.58149
-0.612523
-0.51761
-0.436865
-0.355832
-0.274956
-0.194949
-0.116449
-0.0386801
47.5914
47.59
47.6004
47.6196
47.6465
47.6802
47.7225
47.7534
47.8503
47.7955
47.963
47.9055
47.9725
-0.536095
-0.446867
-0.641555
-0.409288
-0.455097
-0.382135
-0.321758
-0.261649
-0.201802
-0.142744
-0.0850889
-0.0281943
47.5849
47.5882
47.5994
47.6186
47.6456
47.6793
47.7216
47.7527
47.849
47.7969
47.9559
47.9041
47.9727
-0.536755
-0.447074
-0.64321
-0.410479
-0.456313
-0.383203
-0.322636
-0.262358
-0.202347
-0.143128
-0.0853171
-0.0282702
47.5818
47.5859
47.5974
47.6167
47.6436
47.6772
47.7194
47.7508
47.8462
47.7971
47.9511
47.9021
47.9725
-0.539108
-0.450547
-0.646396
-0.413249
-0.458794
-0.385334
-0.324412
-0.26379
-0.203446
-0.143903
-0.0857777
-0.0284226
47.5777
47.5827
47.5946
47.6139
47.6406
47.674
47.716
47.7478
47.8418
47.7959
47.945
47.8998
47.9712
-0.543404
-0.454947
-0.651121
-0.417281
-0.462481
-0.388496
-0.327058
-0.265926
-0.205085
-0.14506
-0.0864652
-0.0286499
47.5734
47.5789
47.591
47.6102
47.6366
47.6698
47.7114
47.7437
47.8359
47.7926
47.9384
47.8964
47.9686
-0.549535
-0.461445
-0.657337
-0.422729
-0.467354
-0.392671
-0.330547
-0.268742
-0.207245
-0.146585
-0.0873717
-0.0289494
47.5689
47.5746
47.5867
47.6056
47.6317
47.6645
47.7057
47.7384
47.8286
47.788
47.9304
47.8918
47.9647
-0.557333
-0.469219
-0.664941