/*--------------------------------*- C++ -*----------------------------------*\
| =========                 |                                                 |
| \\      /  F ield         | OpenFOAM: The Open Source CFD Toolbox           |
|  \\    /   O peration     | Version:  2306                                  |
|   \\  /    A nd           | Website:  www.openfoam.com                      |
|    \\/     M anipulation  |                                                 |
\*---------------------------------------------------------------------------*/
FoamFile
{
    version     2.0;
    format      ascii;
    arch        "LSB;label=32;scalar=64";
    class       volScalarField;
    location    "0.1";
    object      p;
}
// * * * * * * * * * * * * * * * * * * * * * * * * * * * * * * * * * * * * * //

dimensions      [0 2 -2 0 0 0 0];

internalField   nonuniform List<scalar> 
288632
(
104.308
104.307
104.326
104.359
104.404
104.458
104.518
104.581
104.642
104.699
104.759
103.514
103.719
2.26188
0.222731
0.228214
0.223882
0.211786
0.193322
0.169997
0.143046
0.11346
0.0820332
0.0491551
0.016962
104.304
104.307
104.326
104.359
104.405
104.459
104.52
104.583
104.644
104.7
104.758
103.501
103.758
2.26861
0.22606
0.230092
0.224238
0.211621
0.193083
0.169779
0.142863
0.113317
0.0819304
0.049092
0.0169399
104.302
104.306
104.326
104.36
104.406
104.461
104.522
104.586
104.648
104.704
104.763
103.516
103.763
2.28305
0.220843
0.227599
0.223331
0.211026
0.192576
0.169343
0.142502
0.113033
0.0817264
0.0489684
0.016898
104.3
104.305
104.326
104.36
104.407
104.463
104.526
104.592
104.655
104.711
104.768
103.544
103.778
2.28217
0.220524
0.2266
0.222305
0.210156
0.191822
0.168696
0.141967
0.112613
0.0814245
0.0487863
0.0168368
104.298
104.303
104.325
104.361
104.409
104.467
104.532
104.599
104.663
104.72
104.775
103.585
103.803
2.2804
0.219118
0.225261
0.221026
0.209021
0.19083
0.167847
0.141264
0.112063
0.0810292
0.0485483
0.0167572
104.297
104.303
104.325
104.362
104.411
104.471
104.538
104.608
104.675
104.731
104.784
103.637
103.834
2.27816
0.217338
0.223609
0.219488
0.207641
0.189617
0.166806
0.140405
0.11139
0.080546
0.0482577
0.01666
104.295
104.302
104.325
104.363
104.414
104.476
104.546
104.62
104.689
104.746
104.797
103.7
103.869
2.27547
0.215206
0.221666
0.217701
0.206031
0.188197
0.165589
0.139399
0.110602
0.0799814
0.0479186
0.0165468
104.294
104.301
104.325
104.364
104.417
104.482
104.556
104.633
104.706
104.765
104.813
103.772
103.907
2.27203
0.212776
0.219462
0.215682
0.204211
0.186591
0.164212
0.138261
0.109712
0.0793431
0.0475355
0.0164189
104.293
104.3
104.325
104.366
104.421
104.489
104.566
104.648
104.726
104.787
104.833
103.852
103.949
2.26803
0.210107
0.217026
0.213456
0.202204
0.184821
0.162693
0.137007
0.10873
0.0786398
0.0471136
0.0162782
104.292
104.299
104.325
104.367
104.425
104.496
104.578
104.666
104.749
104.814
104.859
103.939
103.994
2.2636
0.207236
0.214395
0.21105
0.200037
0.18291
0.161054
0.135653
0.107671
0.0778813
0.0466587
0.0161265
104.291
104.299
104.326
104.369
104.429
104.504
104.591
104.685
104.776
104.846
104.89
104.032
104.038
2.25884
0.204177
0.211597
0.208499
0.19774
0.180885
0.159319
0.13422
0.10655
0.0770785
0.0461773
0.015966
104.29
104.298
104.326
104.371
104.434
104.512
104.605
104.707
104.805
104.882
104.927
104.13
104.084
2.254
0.200956
0.208673
0.205838
0.195348
0.178777
0.157513
0.132729
0.105384
0.0762434
0.0456764
0.0157989
104.289
104.298
104.327
104.373
104.438
104.521
104.62
104.73
104.838
104.924
104.971
104.234
104.129
2.24924
0.197635
0.205673
0.203109
0.192895
0.176617
0.155662
0.131202
0.10419
0.0753887
0.0451636
0.0156278
104.289
104.298
104.327
104.375
104.443
104.53
104.636
104.754
104.873
104.969
105.02
104.342
104.169
2.24463
0.194268
0.20264
0.200354
0.19042
0.174438
0.153796
0.129663
0.102987
0.0745278
0.0446469
0.0154553
104.288
104.298
104.328
104.378
104.448
104.539
104.651
104.779
104.91
105.018
105.075
104.454
104.211
2.23992
0.190941
0.199629
0.197617
0.187962
0.172275
0.151944
0.128136
0.101794
0.0736742
0.0441346
0.0152845
104.288
104.298
104.329
104.38
104.453
104.548
104.667
104.805
104.949
105.07
105.135
104.569
104.254
2.23518
0.187723
0.196692
0.194943
0.185561
0.170163
0.150137
0.126646
0.100631
0.0728419
0.043635
0.0151179
104.288
104.298
104.329
104.382
104.457
104.557
104.683
104.83
104.987
105.124
105.198
104.685
104.294
2.23048
0.184647
0.193874
0.192377
0.183257
0.168137
0.148404
0.125219
0.0995173
0.0720447
0.0431567
0.0149585
104.288
104.298
104.33
104.384
104.462
104.566
104.698
104.855
105.026
105.177
105.261
104.799
104.331
2.22604
0.181749
0.19122
0.189963
0.181091
0.166233
0.146776
0.123878
0.0984709
0.0712961
0.0427076
0.0148089
104.288
104.298
104.331
104.386
104.466
104.573
104.712
104.879
105.063
105.23
105.325
104.911
104.365
2.22187
0.179067
0.188772
0.187745
0.179102
0.164484
0.14528
0.122647
0.0975101
0.070609
0.0422957
0.0146717
104.288
104.299
104.332
104.388
104.469
104.581
104.724
104.9
105.097
105.279
105.385
105.017
104.397
2.21812
0.176655
0.186573
0.185764
0.177327
0.162921
0.143944
0.121547
0.0966518
0.0699955
0.041928
0.0145495
104.289
104.3
104.333
104.39
104.473
104.587
104.736
104.919
105.127
105.324
105.44
105.114
104.428
2.21483
0.174569
0.184662
0.184064
0.1758
0.161574
0.142791
0.120597
0.0959109
0.0694665
0.0416112
0.0144445
104.29
104.3
104.334
104.391
104.475
104.592
104.745
104.935
105.153
105.362
105.487
105.199
104.458
2.21201
0.172845
0.183062
0.182688
0.174552
0.160467
0.141842
0.119815
0.0953009
0.069031
0.0413506
0.0143582
104.292
104.301
104.334
104.392
104.478
104.596
104.752
104.948
105.173
105.392
105.525
105.269
104.484
2.20957
0.170561
0.181752
0.181685
0.173606
0.159617
0.141112
0.119214
0.0948327
0.0686969
0.0411509
0.0142919
104.294
104.302
104.335
104.393
104.479
104.599
104.757
104.957
105.187
105.413
105.551
105.323
104.506
2.21878
0.174324
0.183088
0.181363
0.172988
0.159039
0.140616
0.118806
0.0945149
0.06847
0.0410158
0.0142472
104.298
104.303
104.335
104.393
104.48
104.6
104.76
104.961
105.194
105.424
105.566
105.354
104.522
2.22523
0.170094
0.180512
0.180266
0.17253
0.15873
0.140363
0.118599
0.0943534
0.0683548
0.0409481
0.0142252
104.301
104.303
104.322
104.356
104.4
104.454
104.514
104.577
104.637
104.693
104.75
103.493
103.752
2.27842
0.224423
0.22894
0.224364
0.212146
0.193594
0.170217
0.143236
0.11363
0.0821814
0.0492659
0.0170085
104.298
104.303
104.322
104.356
104.401
104.455
104.516
104.578
104.639
104.694
104.751
103.48
103.791
2.28722
0.227593
0.230679
0.224662
0.211955
0.193347
0.169995
0.14305
0.113484
0.0820768
0.0492016
0.016986
104.295
104.302
104.322
104.356
104.402
104.457
104.518
104.582
104.643
104.698
104.755
103.495
103.797
2.30388
0.222551
0.228336
0.223781
0.211358
0.192833
0.169552
0.142683
0.113197
0.0818696
0.0490761
0.0169436
104.293
104.3
104.322
104.357
104.403
104.46
104.522
104.587
104.65
104.704
104.761
103.524
103.813
2.30329
0.222169
0.227283
0.222739
0.210477
0.192067
0.168895
0.142139
0.11277
0.0815633
0.0488914
0.0168816
104.291
104.299
104.322
104.357
104.405
104.463
104.528
104.595
104.659
104.713
104.768
103.565
103.837
2.30155
0.220797
0.225921
0.221443
0.209325
0.191059
0.168031
0.141426
0.112211
0.0811621
0.0486501
0.0168009
104.29
104.298
104.321
104.358
104.407
104.467
104.534
104.604
104.67
104.725
104.777
103.618
103.867
2.29929
0.219027
0.22425
0.219882
0.207923
0.189826
0.166974
0.140553
0.111528
0.0806717
0.0483555
0.0167025
104.288
104.297
104.321
104.359
104.41
104.472
104.542
104.615
104.684
104.74
104.79
103.681
103.902
2.29647
0.216887
0.222283
0.218068
0.206287
0.188383
0.165737
0.139531
0.110728
0.0800985
0.0480116
0.0165877
104.287
104.297
104.321
104.36
104.413
104.478
104.551
104.628
104.701
104.759
104.806
103.754
103.94
2.29302
0.214442
0.220048
0.216017
0.204436
0.186749
0.164336
0.138374
0.109823
0.0794504
0.0476228
0.0164581
104.286
104.296
104.321
104.362
104.417
104.484
104.562
104.644
104.721
104.782
104.827
103.835
103.98
2.28901
0.211747
0.217577
0.213754
0.202394
0.184948
0.162792
0.137099
0.108825
0.078736
0.0471945
0.0163153
104.285
104.295
104.321
104.363
104.42
104.491
104.574
104.661
104.745
104.809
104.853
103.923
104.021
2.28455
0.208841
0.214906
0.211308
0.200189
0.183003
0.161124
0.135722
0.107749
0.0779653
0.0467325
0.0161613
104.284
104.294
104.322
104.365
104.424
104.499
104.586
104.681
104.771
104.841
104.886
104.017
104.064
2.27982
0.205745
0.212064
0.208713
0.197852
0.180943
0.159358
0.134264
0.106609
0.0771495
0.0462435
0.0159983
104.283
104.294
104.322
104.367
104.429
104.507
104.6
104.702
104.801
104.878
104.924
104.117
104.109
2.27501
0.202496
0.209095
0.206007
0.195416
0.178797
0.157519
0.132747
0.105423
0.0763007
0.0457346
0.0158286
104.282
104.293
104.322
104.369
104.433
104.516
104.614
104.724
104.834
104.92
104.97
104.222
104.151
2.27022
0.199147
0.20605
0.203229
0.192918
0.176596
0.155635
0.131193
0.104209
0.0754318
0.0452134
0.0156547
104.281
104.293
104.323
104.371
104.438
104.524
104.63
104.748
104.869
104.966
105.021
104.332
104.191
2.26548
0.195761
0.202971
0.200425
0.190397
0.174376
0.153734
0.129626
0.102985
0.0745563
0.0446881
0.0154796
104.281
104.293
104.323
104.373
104.442
104.533
104.645
104.773
104.906
105.016
105.079
104.446
104.231
2.26075
0.192413
0.199914
0.197637
0.187891
0.172171
0.151848
0.128071
0.101771
0.073688
0.0441672
0.0153059
104.28
104.293
104.324
104.375
104.447
104.542
104.66
104.798
104.944
105.069
105.141
104.563
104.269
2.25593
0.189166
0.196928
0.194913
0.185443
0.170018
0.150006
0.126554
0.100587
0.0728412
0.0436592
0.0151367
104.28
104.293
104.324
104.377
104.451
104.55
104.675
104.823
104.983
105.123
105.206
104.68
104.306
2.25119
0.18606
0.194062
0.192297
0.183094
0.167952
0.148239
0.1251
0.0994528
0.0720298
0.0431726
0.0149745
104.28
104.293
104.325
104.379
104.455
104.558
104.69
104.848
105.021
105.178
105.273
104.797
104.342
2.24663
0.183135
0.191362
0.189836
0.180884
0.166009
0.146579
0.123734
0.098387
0.0712678
0.0427158
0.0148224
104.28
104.293
104.326
104.38
104.459
104.566
104.703
104.871
105.057
105.231
105.339
104.911
104.375
2.24246
0.180428
0.18887
0.187572
0.178853
0.164224
0.145054
0.122479
0.0974082
0.0705683
0.0422966
0.0146829
104.28
104.294
104.327
104.382
104.463
104.573
104.716
104.892
105.091
105.28
105.402
105.018
104.406
2.23871
0.177988
0.18663
0.18555
0.177041
0.16263
0.143691
0.121357
0.0965336
0.0699438
0.0419225
0.0145588
104.281
104.294
104.328
104.384
104.466
104.579
104.726
104.91
105.121
105.325
105.459
105.117
104.436
2.23543
0.175854
0.184681
0.183814
0.175481
0.161255
0.142515
0.120389
0.0957787
0.069405
0.0416
0.0144519
104.282
104.295
104.328
104.385
104.468
104.583
104.735
104.926
105.147
105.364
105.508
105.203
104.465
2.23253
0.174073
0.183054
0.182408
0.174205
0.160124
0.141546
0.119591
0.0951571
0.0689614
0.0413347
0.0143638
104.284
104.296
104.329
104.386
104.47
104.587
104.742
104.938
105.167
105.394
105.547
105.275
104.49
2.23001
0.171824
0.181757
0.181386
0.173238
0.159256
0.140802
0.118978
0.09468
0.0686209
0.0411313
0.0142961
104.286
104.297
104.33
104.387
104.472
104.59
104.747
104.946
105.18
105.415
105.574
105.33
104.512
2.23866
0.175358
0.182938
0.181007
0.172595
0.158665
0.140296
0.118562
0.094356
0.0683898
0.0409937
0.0142505
104.29
104.298
104.33
104.387
104.473
104.591
104.75
104.951
105.188
105.427
105.587
105.363
104.527
2.24333
0.171349
0.180478
0.179952
0.172152
0.158353
0.140037
0.118351
0.0941914
0.0682726
0.0409246
0.0142283
104.292
104.296
104.315
104.348
104.393
104.447
104.506
104.568
104.628
104.682
104.739
103.491
103.743
2.2572
0.225148
0.230126
0.225479
0.213061
0.194335
0.17083
0.14376
0.114083
0.0825587
0.0495381
0.01712
104.289
104.295
104.315
104.349
104.393
104.448
104.508
104.57
104.63
104.683
104.74
103.478
103.782
2.2621
0.228375
0.231779
0.225731
0.212853
0.194076
0.1706
0.143568
0.113933
0.0824509
0.049472
0.017097
104.286
104.294
104.315
104.349
104.394
104.449
104.51
104.574
104.634
104.688
104.745
103.494
103.788
2.28055
0.223528
0.229593
0.224863
0.212241
0.193549
0.170144
0.14319
0.113636
0.0822379
0.0493433
0.0170536
104.284
104.293
104.315
104.349
104.396
104.452
104.514
104.579
104.641
104.694
104.75
103.523
103.803
2.28131
0.223133
0.228496
0.223797
0.211335
0.19276
0.169466
0.14263
0.113197
0.0819228
0.0491538
0.0169902
104.282
104.292
104.314
104.35
104.397
104.455
104.519
104.586
104.649
104.703
104.757
103.564
103.825
2.28004
0.221804
0.227098
0.222467
0.210148
0.191719
0.168576
0.141894
0.112622
0.0815101
0.048906
0.0169074
104.28
104.291
104.314
104.351
104.399
104.459
104.526
104.595
104.661
104.715
104.766
103.617
103.853
2.2778
0.220032
0.225383
0.220859
0.208702
0.190445
0.167484
0.140993
0.111917
0.0810053
0.0486033
0.0168064
104.279
104.29
104.314
104.351
104.402
104.464
104.533
104.606
104.675
104.73
104.778
103.681
103.887
2.27491
0.217876
0.223366
0.218989
0.207012
0.188955
0.166207
0.139938
0.111092
0.0804151
0.0482495
0.0166884
104.278
104.289
104.313
104.352
104.405
104.469
104.542
104.619
104.692
104.749
104.795
103.755
103.924
2.27151
0.215397
0.221071
0.216874
0.2051
0.187267
0.16476
0.138744
0.110159
0.0797472
0.0478493
0.0165551
104.276
104.288
104.313
104.354
104.408
104.475
104.552
104.634
104.712
104.772
104.816
103.837
103.961
2.26768
0.212647
0.21853
0.214538
0.202989
0.185404
0.163163
0.137426
0.109129
0.0790106
0.0474081
0.0164082
104.275
104.287
104.313
104.355
104.411
104.482
104.564
104.651
104.735
104.8
104.844
103.926
104.002
2.26346
0.209674
0.215779
0.212011
0.200709
0.183392
0.161438
0.136004
0.108018
0.0782158
0.046932
0.0162496
104.274
104.286
104.313
104.356
104.415
104.489
104.576
104.67
104.762
104.833
104.877
104.022
104.044
2.25893
0.206518
0.212855
0.209329
0.198289
0.181258
0.159611
0.134496
0.106841
0.077374
0.0464277
0.0160817
104.273
104.285
104.313
104.358
104.419
104.497
104.589
104.691
104.792
104.871
104.918
104.124
104.085
2.25423
0.203214
0.2098
0.206529
0.195766
0.179035
0.157707
0.132927
0.105615
0.0764979
0.0459027
0.0159067
104.272
104.285
104.313
104.359
104.423
104.504
104.603
104.713
104.824
104.914
104.966
104.233
104.126
2.24944
0.199815
0.206661
0.203654
0.193176
0.176754
0.155755
0.131318
0.10436
0.0756005
0.0453649
0.0157276
104.271
104.284
104.314
104.361
104.427
104.512
104.617
104.736
104.859
104.962
105.021
104.345
104.158
2.24462
0.196384
0.203487
0.200748
0.19056
0.174451
0.153784
0.129696
0.103094
0.0746959
0.0448227
0.0155469
104.27
104.284
104.314
104.363
104.431
104.521
104.631
104.76
104.896
105.013
105.082
104.462
104.189
2.23985
0.192987
0.200332
0.197858
0.187959
0.172162
0.151828
0.128085
0.101838
0.0737983
0.0442847
0.0153678
104.27
104.283
104.314
104.364
104.435
104.529
104.646
104.784
104.934
105.067
105.148
104.582
104.221
2.23514
0.18968
0.197247
0.195031
0.185416
0.169925
0.149916
0.126513
0.100612
0.0729223
0.0437598
0.015193
104.269
104.283
104.315
104.366
104.439
104.536
104.66
104.808
104.972
105.122
105.218
104.704
104.254
2.23048
0.186512
0.194282
0.192314
0.182973
0.167778
0.148082
0.125005
0.0994371
0.0720826
0.0432567
0.0150255
104.269
104.283
104.315
104.367
104.443
104.544
104.673
104.832
105.009
105.178
105.289
104.825
104.286
2.22602
0.183527
0.191485
0.189755
0.180675
0.165759
0.146358
0.123587
0.0983323
0.0712937
0.0427842
0.0148683
104.269
104.283
104.316
104.369
104.446
104.55
104.686
104.853
105.045
105.231
105.359
104.943
104.318
2.22194
0.180756
0.1889
0.187399
0.178561
0.163902
0.144773
0.122285
0.0973174
0.0705693
0.0423505
0.0147242
104.269
104.284
104.316
104.37
104.449
104.556
104.697
104.873
105.078
105.282
105.426
105.054
104.348
2.2183
0.178232
0.186571
0.185293
0.176673
0.162243
0.143356
0.12112
0.0964102
0.0699222
0.0419632
0.0145957
104.27
104.284
104.317
104.372
104.452
104.562
104.707
104.891
105.107
105.327
105.487
105.157
104.378
2.21503
0.175992
0.184542
0.183484
0.175047
0.16081
0.142133
0.120114
0.095627
0.0693638
0.0416292
0.0144848
104.271
104.285
104.318
104.373
104.454
104.566
104.715
104.905
105.132
105.365
105.539
105.246
104.405
2.21203
0.174086
0.182849
0.182014
0.173716
0.159633
0.141125
0.119285
0.094982
0.0689038
0.0413543
0.0143934
104.273
104.286
104.318
104.374
104.456
104.569
104.722
104.917
105.151
105.396
105.581
105.321
104.429
2.20894
0.171799
0.181518
0.180944
0.172704
0.158728
0.14035
0.118649
0.0944869
0.0685507
0.0411435
0.0143233
104.275
104.286
104.319
104.374
104.457
104.572
104.726
104.925
105.165
105.417
105.609
105.377
104.45
2.21585
0.175094
0.182521
0.1805
0.172029
0.158111
0.139824
0.118217
0.0941506
0.0683112
0.0410007
0.0142762
104.279
104.287
104.319
104.375
104.457
104.573
104.728
104.929
105.172
105.429
105.623
105.409
104.465
2.21921
0.171038
0.180108
0.179462
0.171579
0.157788
0.139555
0.117997
0.0939798
0.0681896
0.0409291
0.0142535
104.281
104.285
104.305
104.338
104.382
104.435
104.494
104.556
104.614
104.667
104.722
103.492
103.733
2.2225
0.227163
0.232152
0.227274
0.214527
0.195524
0.171817
0.144601
0.114807
0.0831577
0.0499676
0.017295
104.277
104.284
104.305
104.338
104.382
104.436
104.496
104.557
104.616
104.668
104.723
103.479
103.774
2.2247
0.230417
0.23373
0.227482
0.214301
0.195251
0.171576
0.144401
0.11465
0.0830452
0.0498991
0.0172714
104.274
104.283
104.304
104.338
104.383
104.438
104.498
104.561
104.62
104.672
104.727
103.496
103.779
2.24378
0.225688
0.231659
0.226606
0.213662
0.1947
0.171099
0.144006
0.114341
0.0828234
0.0497655
0.0172265
104.272
104.282
104.304
104.338
104.384
104.44
104.502
104.566
104.627
104.679
104.732
103.525
103.792
2.24506
0.225247
0.230508
0.225508
0.212719
0.193877
0.170391
0.143421
0.113883
0.0824953
0.0495687
0.0171606
104.27
104.281
104.303
104.339
104.386
104.443
104.507
104.573
104.636
104.687
104.739
103.566
103.812
2.24403
0.223914
0.229052
0.224121
0.211477
0.192785
0.169458
0.142652
0.113282
0.0820652
0.049311
0.0170747
104.268
104.279
104.303
104.339
104.388
104.447
104.513
104.582
104.647
104.699
104.748
103.62
103.838
2.24181
0.222111
0.22727
0.222443
0.209964
0.191452
0.168316
0.141709
0.112545
0.0815387
0.0489958
0.0169697
104.267
104.278
104.302
104.34
104.39
104.451
104.52
104.593
104.661
104.715
104.76
103.684
103.87
2.23879
0.2199
0.225172
0.220488
0.208193
0.189889
0.166977
0.140605
0.111683
0.0809227
0.0486272
0.0168471
104.265
104.277
104.302
104.34
104.392
104.456
104.529
104.606
104.678
104.734
104.777
103.759
103.903
2.23523
0.217342
0.222781
0.218273
0.206187
0.188118
0.165459
0.139353
0.110707
0.0802251
0.0482098
0.0167082
104.264
104.276
104.301
104.341
104.395
104.461
104.538
104.62
104.698
104.758
104.799
103.842
103.938
2.2313
0.21449
0.220129
0.215825
0.203972
0.186162
0.163783
0.137972
0.109629
0.0794553
0.0477493
0.0165551
104.262
104.275
104.301
104.342
104.398
104.467
104.549
104.637
104.721
104.787
104.828
103.933
103.976
2.22707
0.211407
0.217254
0.213174
0.201575
0.184047
0.161972
0.13648
0.108465
0.0786241
0.0472519
0.0163896
104.261
104.274
104.301
104.343
104.401
104.474
104.56
104.655
104.748
104.821
104.864
104.032
104.012
2.22254
0.208134
0.214195
0.210357
0.199029
0.181803
0.160051
0.134898
0.107231
0.0777432
0.0467247
0.0162143
104.26
104.273
104.301
104.344
104.404
104.481
104.572
104.674
104.777
104.86
104.908
104.138
104.045
2.21765
0.204715
0.210997
0.207413
0.196372
0.179461
0.158048
0.133249
0.105946
0.0768257
0.0461756
0.0160317
104.259
104.272
104.3
104.345
104.407
104.488
104.585
104.695
104.809
104.905
104.96
104.251
104.075
2.21263
0.201205
0.207708
0.204386
0.193643
0.177058
0.155993
0.131559
0.104629
0.0758854
0.0456128
0.0158444
104.257
104.271
104.3
104.346
104.411
104.495
104.598
104.717
104.844
104.953
105.02
104.368
104.094
2.20763
0.197663
0.204379
0.201324
0.190882
0.174628
0.153918
0.129852
0.1033
0.0749366
0.0450449
0.0156555
104.257
104.27
104.3
104.348
104.414
104.502
104.611
104.74
104.88
105.006
105.085
104.491
104.115
2.20273
0.194144
0.201065
0.198274
0.188134
0.172212
0.151854
0.128157
0.10198
0.0739946
0.0444811
0.015468
104.256
104.27
104.3
104.349
104.417
104.508
104.624
104.762
104.916
105.061
105.156
104.617
104.14
2.19794
0.190711
0.197818
0.195286
0.185445
0.169848
0.149837
0.1265
0.10069
0.0730745
0.0439306
0.0152849
104.255
104.269
104.3
104.35
104.42
104.515
104.636
104.784
104.953
105.117
105.231
104.746
104.166
2.19336
0.187414
0.194693
0.192413
0.18286
0.167578
0.1479
0.12491
0.0994529
0.0721919
0.0434026
0.0151094
104.255
104.269
104.3
104.351
104.423
104.521
104.648
104.806
104.989
105.173
105.307
104.874
104.193
2.18896
0.184297
0.19174
0.189702
0.180425
0.16544
0.146078
0.123414
0.0982889
0.0713621
0.0429063
0.0149446
104.255
104.269
104.301
104.352
104.426
104.527
104.659
104.826
105.023
105.227
105.381
104.999
104.221
2.18483
0.181389
0.189006
0.187204
0.178184
0.163474
0.144402
0.122039
0.097219
0.0705998
0.0424505
0.0147933
104.255
104.269
104.301
104.353
104.428
104.532
104.669
104.844
105.054
105.277
105.453
105.116
104.249
2.18113
0.178725
0.186539
0.184969
0.176179
0.161715
0.142903
0.120808
0.0962623
0.0699183
0.0420432
0.0146581
104.255
104.269
104.301
104.354
104.43
104.536
104.677
104.859
105.082
105.322
105.518
105.223
104.276
2.1778
0.176348
0.184387
0.183044
0.174451
0.160195
0.141607
0.119745
0.0954361
0.0693299
0.0416916
0.0145413
104.256
104.27
104.302
104.354
104.432
104.54
104.684
104.872
105.105
105.36
105.574
105.317
104.3
2.17464
0.1743
0.182592
0.181479
0.173035
0.158946
0.14054
0.118869
0.0947554
0.0688451
0.0414021
0.014445
104.258
104.271
104.302
104.355
104.433
104.543
104.69
104.882
105.123
105.39
105.619
105.395
104.323
2.17095
0.171933
0.181188
0.180326
0.171955
0.157984
0.139719
0.118196
0.0942327
0.0684729
0.0411799
0.0143715
104.26
104.271
104.302
104.355
104.434
104.544
104.694
104.889
105.135
105.411
105.649
105.454
104.342
2.17649
0.175041
0.182034
0.179815
0.171234
0.157328
0.139161
0.117739
0.0938778
0.0682204
0.0410295
0.0143222
104.263
104.272
104.303
104.356
104.435
104.546
104.696
104.893
105.142
105.423
105.664
105.486
104.359
2.1801
0.170978
0.179641
0.178774
0.170766
0.156988
0.138877
0.117507
0.0936977
0.0680922
0.0409542
0.0142984
104.266
104.271
104.291
104.323
104.367
104.42
104.479
104.539
104.596
104.646
104.697
103.495
103.724
2.17935
0.230249
0.235029
0.229734
0.216516
0.197131
0.173148
0.145737
0.115785
0.0839666
0.0505479
0.0175313
104.263
104.27
104.291
104.323
104.368
104.421
104.48
104.541
104.598
104.647
104.698
103.482
103.764
2.1787
0.233527
0.236534
0.229898
0.216267
0.19684
0.172893
0.145526
0.115619
0.0838481
0.050476
0.0175066
104.26
104.269
104.29
104.324
104.368
104.422
104.482
104.544
104.602
104.651
104.703
103.499
103.768
2.19743
0.228856
0.234559
0.229006
0.215593
0.196256
0.172388
0.145108
0.115292
0.0836145
0.0503358
0.0174596
104.258
104.268
104.29
104.324
104.369
104.424
104.486
104.549
104.609
104.658
104.708
103.529
103.779
2.19835
0.228299
0.233329
0.227855
0.214595
0.195383
0.171637
0.144488
0.114808
0.0832687
0.0501289
0.0173905
104.256
104.266
104.289
104.324
104.37
104.427
104.49
104.556
104.617
104.667
104.714
103.571
103.796
2.19709
0.226903
0.231785
0.226386
0.213279
0.194225
0.170649
0.143674
0.114173
0.0828152
0.0498579
0.0173004
104.254
104.265
104.288
104.324
104.372
104.43
104.496
104.564
104.628
104.679
104.722
103.624
103.821
2.19449
0.225019
0.229904
0.224611
0.211673
0.192809
0.169436
0.142675
0.113394
0.0822597
0.049526
0.0171901
104.252
104.263
104.287
104.324
104.374
104.434
104.503
104.575
104.642
104.694
104.735
103.689
103.849
2.191
0.222702
0.227688
0.222537
0.209792
0.191148
0.168014
0.141504
0.112482
0.081609
0.0491375
0.0170611
104.25
104.262
104.287
104.325
104.376
104.438
104.51
104.587
104.659
104.714
104.752
103.765
103.878
2.18703
0.220013
0.22516
0.220185
0.207658
0.189264
0.166401
0.140176
0.111448
0.0808717
0.0486971
0.0169149
104.248
104.261
104.286
104.325
104.378
104.443
104.519
104.601
104.679
104.739
104.776
103.85
103.91
2.18272
0.217017
0.222352
0.217582
0.205298
0.187181
0.164619
0.13871
0.110306
0.0800574
0.0482107
0.0167534
104.247
104.259
104.285
104.325
104.38
104.448
104.529
104.616
104.702
104.769
104.807
103.944
103.94
2.17811
0.21377
0.219302
0.214759
0.202743
0.184927
0.16269
0.137124
0.109071
0.0791772
0.0476848
0.0165789
104.245
104.258
104.285
104.326
104.382
104.454
104.539
104.633
104.728
104.804
104.847
104.047
103.965
2.17319
0.210314
0.216052
0.211754
0.200025
0.182531
0.160643
0.135441
0.107762
0.0782437
0.047127
0.0163937
104.244
104.257
104.284
104.326
104.385
104.459
104.549
104.652
104.757
104.845
104.895
104.158
103.985
2.16797
0.206701
0.212649
0.208611
0.197184
0.180029
0.158506
0.133685
0.106396
0.0772704
0.0465455
0.0162006
104.242
104.255
104.283
104.327
104.387
104.465
104.56
104.671
104.788
104.89
104.951
104.277
103.992
2.16255
0.20299
0.209143
0.205374
0.194262
0.177458
0.156311
0.131884
0.104995
0.0762719
0.0459489
0.0160025
104.241
104.254
104.283
104.327
104.389
104.471
104.571
104.691
104.821
104.94
105.016
104.402
104.001
2.15716
0.199234
0.205589
0.202093
0.191303
0.174856
0.154091
0.130063
0.103579
0.0752636
0.0453465
0.0158024
104.24
104.253
104.282
104.328
104.392
104.476
104.583
104.711
104.855
104.992
105.086
104.534
104.012
2.15187
0.195494
0.202043
0.198821
0.188354
0.172265
0.151883
0.128252
0.102172
0.0742612
0.0447477
0.0156036
104.238
104.252
104.282
104.328
104.394
104.481
104.593
104.731
104.889
105.047
105.162
104.67
104.025
2.14678
0.191836
0.198563
0.195611
0.185464
0.169728
0.149722
0.12648
0.100796
0.0732814
0.0441625
0.0154094
104.238
104.252
104.281
104.328
104.396
104.486
104.604
104.75
104.923
105.103
105.24
104.808
104.044
2.14198
0.188312
0.195205
0.192518
0.182683
0.167288
0.147645
0.124778
0.0994742
0.0723406
0.0436008
0.0152231
104.237
104.251
104.281
104.329
104.398
104.491
104.613
104.768
104.956
105.158
105.32
104.945
104.063
2.13746
0.184969
0.192027
0.189597
0.18006
0.164989
0.145689
0.123176
0.0982299
0.0714554
0.0430723
0.015048
104.237
104.251
104.281
104.329
104.399
104.495
104.622
104.785
104.987
105.211
105.399
105.076
104.084
2.13318
0.181847
0.189081
0.186903
0.177643
0.162873
0.143889
0.121701
0.0970853
0.0706413
0.0425864
0.0148868
104.237
104.25
104.281
104.33
104.401
104.499
104.63
104.8
105.015
105.26
105.473
105.2
104.106
2.12919
0.178986
0.186421
0.184487
0.175479
0.160977
0.142276
0.120381
0.0960612
0.0699131
0.0421517
0.0147426
104.237
104.25
104.281
104.33
104.402
104.502
104.636
104.813
105.04
105.303
105.541
105.312
104.129
2.12561
0.17643
0.184098
0.182404
0.173611
0.159338
0.140882
0.11924
0.0951764
0.069284
0.0417763
0.014618
104.238
104.251
104.281
104.33
104.403
104.504
104.642
104.824
105.06
105.339
105.6
105.41
104.153
2.12226
0.174217
0.182164
0.180708
0.172079
0.15799
0.139733
0.118299
0.0944471
0.0687654
0.0414669
0.0145155
104.239
104.251
104.281
104.331
104.404
104.506
104.646
104.832
105.075
105.367
105.646
105.491
104.177
2.11837
0.171772
0.180663
0.179451
0.170908
0.156951
0.13885
0.117577
0.0938869
0.0683672
0.0412295
0.0144372
104.241
104.252
104.281
104.331
104.404
104.508
104.649
104.838
105.086
105.386
105.676
105.551
104.2
2.12371
0.174733
0.181344
0.17885
0.170123
0.156244
0.138249
0.117086
0.0935066
0.0680971
0.0410689
0.0143848
104.245
104.253
104.281
104.331
104.405
104.508
104.65
104.841
105.091
105.396
105.688
105.587
104.219
2.12837
0.170684
0.178953
0.17779
0.169626
0.155877
0.137943
0.116837
0.0933136
0.06796
0.0409884
0.0143593
104.249
104.254
104.274
104.306
104.349
104.401
104.459
104.518
104.574
104.621
104.667
103.5
103.713
2.12796
0.234446
0.238781
0.232842
0.218988
0.199111
0.174785
0.147137
0.116993
0.0849701
0.0512702
0.0178259
104.246
104.253
104.273
104.306
104.349
104.402
104.46
104.52
104.576
104.622
104.668
103.488
103.753
2.12625
0.237749
0.240216
0.232956
0.21871
0.198798
0.174512
0.146911
0.116817
0.0848441
0.051194
0.0177998
104.243
104.252
104.273
104.306
104.35
104.403
104.462
104.523
104.58
104.626
104.672
103.504
103.754
2.14391
0.233095
0.238308
0.232035
0.21799
0.198172
0.17397
0.146464
0.116468
0.0845956
0.0510452
0.01775
104.24
104.25
104.272
104.306
104.351
104.405
104.465
104.528
104.586
104.632
104.677
103.534
103.762
2.14423
0.232367
0.236976
0.23081
0.216922
0.197235
0.173166
0.145801
0.115951
0.0842275
0.0508256
0.0176769
104.238
104.249
104.271
104.306
104.351
104.407
104.47
104.534
104.594
104.641
104.682
103.576
103.778
2.14246
0.230861
0.235317
0.229238
0.215509
0.195992
0.172106
0.144929
0.115273
0.0837445
0.0505376
0.0175814
104.236
104.247
104.27
104.305
104.352
104.41
104.475
104.542
104.605
104.653
104.691
103.63
103.799
2.13931
0.228852
0.233302
0.227334
0.213784
0.19447
0.170805
0.143859
0.114441
0.0831522
0.0501847
0.0174645
104.234
104.245
104.269
104.305
104.354
104.413
104.481
104.552
104.619
104.669
104.704
103.695
103.822
2.13534
0.226392
0.230929
0.225106
0.21176
0.192684
0.169277
0.142604
0.113465
0.0824581
0.0497712
0.0173275
104.232
104.244
104.268
104.305
104.355
104.417
104.488
104.564
104.636
104.689
104.722
103.772
103.848
2.13086
0.223536
0.228219
0.222575
0.209461
0.190655
0.167543
0.14118
0.112358
0.0816707
0.0493019
0.0171721
104.23
104.242
104.267
104.305
104.356
104.42
104.495
104.576
104.655
104.715
104.747
103.86
103.872
2.12596
0.220342
0.225205
0.219769
0.206915
0.188409
0.165624
0.139604
0.111134
0.0808
0.0487828
0.0170002
104.228
104.24
104.266
104.305
104.358
104.424
104.503
104.591
104.677
104.745
104.781
103.958
103.889
2.1207
0.216861
0.221923
0.216722
0.204154
0.185975
0.163546
0.137899
0.10981
0.079858
0.0482211
0.0168141
104.226
104.239
104.265
104.305
104.359
104.429
104.512
104.606
104.702
104.782
104.825
104.066
103.898
2.11524
0.21315
0.21842
0.213474
0.201214
0.183386
0.161337
0.136088
0.108404
0.0788577
0.0476246
0.0166165
104.224
104.237
104.263
104.304
104.36
104.433
104.521
104.622
104.729
104.823
104.877
104.184
103.894
2.10949
0.209262
0.214743
0.210069
0.198135
0.180677
0.159028
0.134196
0.106936
0.0778136
0.0470021
0.0164103
104.222
104.235
104.262
104.304
104.362
104.437
104.529
104.639
104.758
104.868
104.938
104.311
103.884
2.10352