/*--------------------------------*- C++ -*----------------------------------*\
| =========                 |                                                 |
| \\      /  F ield         | OpenFOAM: The Open Source CFD Toolbox           |
|  \\    /   O peration     | Version:  2306                                  |
|   \\  /    A nd           | Website:  www.openfoam.com                      |
|    \\/     M anipulation  |                                                 |
\*---------------------------------------------------------------------------*/
FoamFile
{
    version     2.0;
    format      ascii;
    arch        "LSB;label=32;scalar=64";
    class       volScalarField;
    location    "4.5";
    object      p;
}
// * * * * * * * * * * * * * * * * * * * * * * * * * * * * * * * * * * * * * //

dimensions      [0 2 -2 0 0 0 0];

internalField   nonuniform List<scalar> 
288632
(
67.3467
67.3384
67.351
67.3762
67.4108
67.4519
67.506
67.5482
67.6166
67.6442
67.7192
67.7371
67.7677
-2.48734
-2.3543
-2.34305
-2.05655
-1.93732
-1.66909
-1.44236
-1.1912
-0.931199
-0.667036
-0.400912
-0.133829
67.3399
67.337
67.3505
67.3758
67.4106
67.4518
67.5061
67.5486
67.6171
67.6452
67.7197
67.7373
67.7685
-2.48803
-2.35512
-2.34446
-2.05767
-1.93845
-1.67014
-1.44324
-1.19194
-0.931787
-0.667461
-0.401169
-0.133917
67.3379
67.3358
67.3496
67.375
67.41
67.4514
67.5058
67.5489
67.6177
67.647
67.7213
67.739
67.7709
-2.49036
-2.35795
-2.34733
-2.06018
-1.94086
-1.67225
-1.44507
-1.19347
-0.932997
-0.668336
-0.401698
-0.134094
67.3343
67.3337
67.3481
67.3737
67.4089
67.4507
67.5054
67.5492
67.6184
67.6493
67.7233
67.7421
67.7744
-2.49425
-2.36198
-2.35158
-2.06391
-1.94445
-1.67537
-1.44781
-1.19576
-0.934807
-0.669644
-0.402489
-0.13436
67.3316
67.3316
67.3463
67.3722
67.4076
67.4497
67.5047
67.5495
67.6194
67.6523
67.7261
67.7461
67.7788
-2.49961
-2.36747
-2.35716
-2.06885
-1.9492
-1.67947
-1.45142
-1.19878
-0.937193
-0.671368
-0.403532
-0.13471
67.3289
67.3292
67.3442
67.3703
67.4059
67.4484
67.5038
67.5498
67.6205
67.6559
67.7297
67.7512
67.7843
-2.50631
-2.37415
-2.36396
-2.0749
-1.95501
-1.6845
-1.45585
-1.20249
-0.940121
-0.673485
-0.404813
-0.135141
67.3262
67.3267
67.3419
67.3681
67.404
67.447
67.5028
67.5502
67.6219
67.66
67.7342
67.7574
67.7909
-2.51423
-2.382
-2.37188
-2.08197
-1.96179
-1.69037
-1.46102
-1.20682
-0.94355
-0.675965
-0.406315
-0.135646
67.3234
67.3241
67.3393
67.3657
67.4019
67.4454
67.5016
67.5506
67.6235
67.6647
67.7395
67.7646
67.7988
-2.52323
-2.39083
-2.38078
-2.08995
-1.96945
-1.697
-1.46688
-1.21173
-0.947432
-0.678774
-0.408017
-0.136218
67.3206
67.3214
67.3367
67.3632
67.3995
67.4436
67.5004
67.551
67.6254
67.67
67.7458
67.7731
67.808
-2.53314
-2.40052
-2.39052
-2.0987
-1.97784
-1.70429
-1.47332
-1.21713
-0.951709
-0.681871
-0.409893
-0.136849
67.3178
67.3186
67.3339
67.3605
67.397
67.4416
67.499
67.5515
67.6275
67.6759
67.7531
67.7829
67.8187
-2.54378
-2.41088
-2.40093
-2.10808
-1.98686
-1.71212
-1.48025
-1.22294
-0.956319
-0.685211
-0.411918
-0.13753
67.315
67.3158
67.3311
67.3577
67.3945
67.4396
67.4977
67.5521
67.6299
67.6823
67.7616
67.794
67.831
-2.55498
-2.42174
-2.41185
-2.11795
-1.99634
-1.72038
-1.48756
-1.22909
-0.961192
-0.688744
-0.414061
-0.138251
67.3123
67.313
67.3282
67.3549
67.3918
67.4375
67.4963
67.5527
67.6327
67.6895
67.7712
67.8065
67.8449
-2.56653
-2.43293
-2.42309
-2.12814
-2.00614
-1.72893
-1.49514
-1.23546
-0.966254
-0.692416
-0.416289
-0.139001
67.3096
67.3103
67.3254
67.3521
67.3892
67.4354
67.495
67.5536
67.6358
67.6973
67.782
67.8206
67.8606
-2.57826
-2.44425
-2.43447
-2.13848
-2.0161
-1.73763
-1.50286
-1.24197
-0.971426
-0.69617
-0.418568
-0.139769
67.3071
67.3077
67.3227
67.3493
67.3865
67.4333
67.4938
67.5546
67.6392
67.7057
67.794
67.8361
67.878
-2.58997
-2.45552
-2.4458
-2.1488
-2.02607
-1.74635
-1.51062
-1.2485
-0.976626
-0.699947
-0.420861
-0.140542
67.3047
67.3052
67.3201
67.3466
67.384
67.4312
67.4927
67.5557
67.643
67.7147
67.8071
67.853
67.8972
-2.60146
-2.46657
-2.45691
-2.15896
-2.03587
-1.75495
-1.51827
-1.25497
-0.98177
-0.703686
-0.423133
-0.141309
67.3026
67.3029
67.3177
67.3441
67.3816
67.4293
67.4917
67.557
67.647
67.724
67.8212
67.871
67.9178
-2.61257
-2.47722
-2.46762
-2.16877
-2.04536
-1.76329
-1.5257
-1.26124
-0.986774
-0.707326
-0.425346
-0.142055
67.3007
67.3009
67.3154
67.3418
67.3793
67.4275
67.4909
67.5585
67.6512
67.7336
67.8361
67.89
67.9397
-2.62311
-2.4873
-2.47776
-2.17809
-2.05439
-1.77123
-1.53279
-1.26724
-0.991556
-0.710807
-0.427463
-0.14277
67.2991
67.2991
67.3134
67.3397
67.3772
67.4259
67.4902
67.56
67.6555
67.7433
67.8513
67.9095
67.9624
-2.63294
-2.49667
-2.48717
-2.18677
-2.0628
-1.77864
-1.53942
-1.27285
-0.996037
-0.71407
-0.429449
-0.14344
67.2978
67.2976
67.3117
67.3378
67.3754
67.4244
67.4896
67.5616
67.6598
67.7527
67.8664
67.9288
67.9852
-2.64191
-2.5052
-2.49573
-2.19469
-2.07047
-1.78542
-1.54548
-1.27799
-1.00014
-0.71706
-0.431269
-0.144055
67.297
67.2964
67.3103
67.3362
67.3738
67.4232
67.4892
67.5632
67.6639
67.7616
67.8808
67.9475
68.0073
-2.6499
-2.51274
-2.50329
-2.20171
-2.07728
-1.79144
-1.55087
-1.28256
-1.0038
-0.719727
-0.432893
-0.144604
67.2967
67.2957
67.3091
67.3349
67.3725
67.4222
67.4889
67.5647
67.6676
67.7697
67.894
67.9648
68.028
-2.6568
-2.51925
-2.50975
-2.20775
-2.08313
-1.79661
-1.55551
-1.2865
-1.00695
-0.722024
-0.434292
-0.145077
67.2964
67.2951
67.3082
67.3338
67.3714
67.4214
67.4887
67.566
67.6709
67.7765
67.9054
67.9799
68.0462
-2.66253
-2.52456
-2.51501
-2.21268
-2.08791
-1.80084
-1.55932
-1.28973
-1.00953
-0.723912
-0.435442
-0.145465
67.2989
67.2953
67.3076
67.3331
67.3707
67.4208
67.4886
67.567
67.6734
67.7819
67.9143
67.9922
68.0612
-2.66702
-2.52874
-2.51903
-2.21649
-2.09158
-1.80408
-1.56223
-1.29221
-1.01152
-0.725358
-0.436323
-0.145763
67.2993
67.295
67.3072
67.3325
67.3701
67.4204
67.4884
67.5677
67.6752
67.7857
67.9203
68.0011
68.0721
-2.67019
-2.53143
-2.52172
-2.21905
-2.09407
-1.80625
-1.56421
-1.29388
-1.01286
-0.726336
-0.436919
-0.145964
67.3057
67.2959
67.3071
67.3324
67.37
67.4203
67.4885
67.5682
67.6762
67.7877
67.9237
68.0053
68.0785
-2.67197
-2.53331
-2.52308
-2.22043
-2.09537
-1.80732
-1.56523
-1.29474
-1.01354
-0.726833
-0.43722
-0.146064
67.3381
67.335
67.3484
67.3737
67.4083
67.4493
67.5034
67.5457
67.6139
67.6418
67.7161
67.7345
67.7662
-2.49481
-2.36266
-2.35106
-2.06283
-1.94219
-1.67293
-1.44482
-1.1927
-0.932036
-0.667428
-0.401052
-0.133845
67.3313
67.3334
67.3479
67.3734
67.4081
67.4492
67.5035
67.546
67.6143
67.6435
67.7148
67.7348
67.7674
-2.49546
-2.36351
-2.35251
-2.06398
-1.94334
-1.674
-1.44571
-1.19346
-0.932635
-0.667861
-0.401314
-0.133934
67.3293
67.3322
67.3471
67.3725
67.4074
67.4488
67.5032
67.5463
67.6148
67.6453
67.7161
67.7365
67.7699
-2.49782
-2.36639
-2.35543
-2.06653
-1.94579
-1.67615
-1.44758
-1.19501
-0.933864
-0.668749
-0.401851
-0.134114
67.3259
67.33
67.3456
67.3712
67.4064
67.448
67.5027
67.5465
67.6155
67.6477
67.7178
67.7395
67.7734
-2.50177
-2.37051
-2.35977
-2.07033
-1.94945
-1.67932
-1.45036
-1.19734
-0.935703
-0.670077
-0.402654
-0.134384
67.3234
67.3278
67.3437
67.3696
67.405
67.447
67.5019
67.5468
67.6164
67.6506
67.7204
67.7434
67.7778
-2.50721
-2.37609
-2.36546
-2.07536
-1.95428
-1.6835
-1.45403
-1.20041
-0.938126
-0.671828
-0.403714
-0.13474
67.3206
67.3255
67.3416
67.3676
67.4033
67.4457
67.501
67.547
67.6174
67.654
67.7239
67.7485
67.7832
-2.51401
-2.3829
-2.37239
-2.08151
-1.96019
-1.68861
-1.45853
-1.20417
-0.941101
-0.673979
-0.405015
-0.135178
67.3178
67.3231
67.3392
67.3654
67.4013
67.4442
67.4998
67.5472
67.6186
67.6579
67.7281
67.7545
67.7898
-2.52204
-2.39089
-2.38046
-2.08872
-1.96709
-1.69458
-1.46379
-1.20858
-0.944587
-0.6765
-0.406542
-0.135691
67.3149
67.3205
67.3367
67.363
67.3991
67.4425
67.4986
67.5474
67.6201
67.6624
67.7332
67.7617
67.7977
-2.53116
-2.39988
-2.38953
-2.09683
-1.97488
-1.70133
-1.46975
-1.21357
-0.948533
-0.679356
-0.408271
-0.136272
67.3121
67.3178
67.334
67.3604
67.3967
67.4406
67.4972
67.5477
67.6217
67.6673
67.7392
67.77
67.8068
-2.54121
-2.40973
-2.39945
-2.10574
-1.98343
-1.70875
-1.4763
-1.21906
-0.952883
-0.682505
-0.41018
-0.136914
67.3093
67.315
67.3312
67.3577
67.3942
67.4385
67.4957
67.5479
67.6236
67.6728
67.7462
67.7796
67.8173
-2.552
-2.42028
-2.41005
-2.11529
-1.99261
-1.71672
-1.48335
-1.22498
-0.957573
-0.685903
-0.41224
-0.137607
67.3065
67.3122
67.3283
67.3549
67.3915
67.4364
67.4942
67.5482
67.6257
67.6788
67.7542
67.7904
67.8293
-2.56334
-2.43133
-2.42117
-2.12533
-2.00226
-1.72512
-1.49079
-1.23123
-0.962533
-0.689498
-0.41442
-0.138342
67.3037
67.3094
67.3255
67.352
67.3887
67.4341
67.4927
67.5486
67.6281
67.6855
67.7632
67.8026
67.843
-2.57505
-2.4427
-2.43261
-2.1357
-2.01224
-1.73383
-1.4985
-1.23772
-0.967687
-0.693237
-0.416689
-0.139106
67.3011
67.3066
67.3226
67.3491
67.386
67.4319
67.4911
67.5491
67.6309
67.6927
67.7733
67.8162
67.8583
-2.58693
-2.45421
-2.4442
-2.14622
-2.02239
-1.74269
-1.50637
-1.24435
-0.972954
-0.69706
-0.41901
-0.139888
67.2985
67.304
67.3199
67.3463
67.3833
67.4296
67.4897
67.5498
67.6339
67.7004
67.7846
67.8313
67.8755
-2.59877
-2.46567
-2.45573
-2.15673
-2.03254
-1.75158
-1.51427
-1.25101
-0.978251
-0.700907
-0.421347
-0.140676
67.2961
67.3015
67.3172
67.3436
67.3806
67.4274
67.4883
67.5505
67.6372
67.7086
67.7969
67.8477
67.8943
-2.61041
-2.47688
-2.46704
-2.16706
-2.04252
-1.76033
-1.52207
-1.25759
-0.983492
-0.704718
-0.423663
-0.141457
67.294
67.2992
67.3148
67.341
67.3781
67.4253
67.4871
67.5515
67.6407
67.7171
67.8101
67.8653
67.9145
-2.62164
-2.48769
-2.47793
-2.17705
-2.05219
-1.76883
-1.52964
-1.26399
-0.988593
-0.708428
-0.425919
-0.142218
67.292
67.2971
67.3125
67.3386
67.3757
67.4234
67.486
67.5525
67.6445
67.7259
67.824
67.8837
67.9361
-2.6323
-2.49793
-2.48824
-2.18653
-2.06138
-1.77691
-1.53686
-1.27011
-0.993469
-0.711977
-0.428078
-0.142947
67.2904
67.2953
67.3105
67.3364
67.3736
67.4216
67.4851
67.5537
67.6483
67.7347
67.8382
67.9027
67.9584
-2.64223
-2.50743
-2.49781
-2.19536
-2.06995
-1.78447
-1.54362
-1.27583
-0.998038
-0.715305
-0.430103
-0.143631
67.2892
67.2939
67.3087
67.3345
67.3716
67.42
67.4843
67.5549
67.6521
67.7433
67.8523
67.9216
67.9809
-2.6513
-2.51608
-2.50651
-2.20341
-2.07776
-1.79137
-1.5498
-1.28107
-1.00222
-0.718356
-0.431961
-0.144259
67.2884
67.2927
67.3072
67.3328
67.37
67.4186
67.4836
67.5561
67.6558
67.7514
67.8658
67.9398
68.0027
-2.65937
-2.52373
-2.51418
-2.21055
-2.0847
-1.7975
-1.55529
-1.28573
-1.00596
-0.721077
-0.433618
-0.144819
67.2881
67.2919
67.306
67.3314
67.3686
67.4175
67.4831
67.5573
67.6591
67.7587
67.8782
67.9567
68.0231
-2.66634
-2.53032
-2.52075
-2.21668
-2.09065
-1.80277
-1.56002
-1.28975
-1.00917
-0.723421
-0.435046
-0.145302
67.2878
67.2914
67.3051
67.3304
67.3674
67.4166
67.4828
67.5584
67.662
67.7649
67.8888
67.9714
68.0411
-2.67212
-2.5357
-2.52609
-2.2217
-2.09552
-1.80709
-1.5639
-1.29305
-1.01181
-0.725348
-0.43622
-0.145699
67.2903
67.2916
67.3045
67.3296
67.3666
67.4159
67.4825
67.5592
67.6643
67.7698
67.8972
67.9834
68.0559
-2.67665
-2.53992
-2.53016
-2.22556
-2.09925
-1.81038
-1.56687
-1.29557
-1.01383
-0.726824
-0.43712
-0.146002
67.2904
67.2912
67.304
67.3291
67.3661
67.4154
67.4823
67.5598
67.6659
67.7732
67.9026
67.9919
68.0666
-2.67985
-2.54265
-2.53289
-2.22816
-2.10178
-1.81259
-1.56889
-1.29728
-1.0152
-0.727822
-0.437728
-0.146208
67.2968
67.2922
67.304
67.3289
67.3659
67.4153
67.4823
67.5601
67.6668
67.7753
67.9059
67.9946
68.0726
-2.68163
-2.54454
-2.53426
-2.22956
-2.10311
-1.81368
-1.56992
-1.29815
-1.01589
-0.728328
-0.438035
-0.14631
67.3321
67.3297
67.3433
67.3685
67.403
67.4439
67.4978
67.5401
67.6081
67.6366
67.7104
67.7296
67.7624
-2.51194
-2.38024
-2.36682
-2.07523
-1.95161
-1.68013
-1.44936
-1.19537
-0.933421
-0.667988
-0.401174
-0.13381
67.3255
67.3281
67.3429
67.3681
67.4028
67.4438
67.4978
67.5404
67.6085
67.6384
67.7088
67.7299
67.7637
-2.51261
-2.38114
-2.36832
-2.07642
-1.9528
-1.68124
-1.45029
-1.19615
-0.934038
-0.668434
-0.401444
-0.133901
67.3236
67.3268
67.3419
67.3673
67.4021
67.4433
67.4974
67.5406
67.6089
67.6401
67.7101
67.7314
67.7663
-2.51507
-2.38412
-2.37136
-2.07907
-1.95534
-1.68346
-1.45221
-1.19775
-0.935305
-0.669348
-0.401996
-0.134087
67.3201
67.3247
67.3404
67.366
67.401
67.4425
67.4968
67.5407
67.6095
67.6424
67.7118
67.7343
67.7697
-2.51916
-2.3884
-2.37586
-2.083
-1.95913
-1.68674
-1.45509
-1.20016
-0.9372
-0.670717
-0.402824
-0.134365
67.3172
67.3226
67.3386
67.3643
67.3995
67.4414
67.496
67.5408
67.6101
67.6451
67.7142
67.7381
67.7739
-2.52479
-2.3942
-2.38176
-2.08821
-1.96413
-1.69106
-1.45888
-1.20332
-0.9397
-0.672523
-0.403917
-0.134732
67.3144
67.3202
67.3364
67.3623
67.3978
67.44
67.4949
67.5408
67.6109
67.6482
67.7174
67.7429
67.7792
-2.53181
-2.40126
-2.38895
-2.09458
-1.97024
-1.69634
-1.46352
-1.20721
-0.94277
-0.674742
-0.40526
-0.135183
67.3115
67.3177
67.3341
67.3601
67.3957
67.4383
67.4935
67.5407
67.6118
67.6518
67.7212
67.7486
67.7855
-2.54011
-2.40955
-2.39733
-2.10204
-1.9774
-1.70252
-1.46896
-1.21176
-0.946369
-0.677344
-0.406835
-0.135713
67.3087
67.3151
67.3315
67.3576
67.3934
67.4364
67.4921
67.5406
67.6129
67.6557
67.7257
67.7553
67.7929
-2.54953
-2.41887
-2.40674
-2.11045
-1.98546
-1.7095
-1.47512
-1.21692
-0.950447
-0.680294
-0.408622
-0.136314
67.3059
67.3123
67.3287
67.3549
67.3908
67.4343
67.4904
67.5405
67.6141
67.66
67.7309
67.763
67.8014
-2.5599
-2.42908
-2.41704
-2.11967
-1.99432
-1.71718
-1.48189
-1.2226
-0.954944
-0.68355
-0.410595
-0.136978
67.303
67.3095
67.3259
67.3521
67.3881
67.432
67.4886
67.5403
67.6154
67.6648
67.737
67.7716
67.8112
-2.57103
-2.44
-2.42804
-2.12957
-2.00383
-1.72544
-1.48919
-1.22872
-0.959797
-0.687065
-0.412726
-0.137695
67.3002
67.3066
67.3229
67.3491
67.3853
67.4296
67.4867
67.5401
67.6169
67.6699
67.7438
67.7814
67.8222
-2.58272
-2.45144
-2.43957
-2.13997
-2.01384
-1.73415
-1.4969
-1.2352
-0.964932
-0.690787
-0.414984
-0.138455
67.2974
67.3038
67.32
67.3461
67.3824
67.4271
67.4848
67.5398
67.6186
67.6754
67.7516
67.7922
67.8347
-2.59478
-2.46321
-2.45143
-2.1507
-2.02418
-1.74317
-1.50489
-1.24193
-0.970272
-0.69466
-0.417334
-0.139247
67.2947
67.301
67.3171
67.3431
67.3794
67.4246
67.4829
67.5397
67.6204
67.6813
67.7602
67.8042
67.8487
-2.607
-2.47511
-2.46343
-2.1616
-2.03471
-1.75236
-1.51305
-1.2488
-0.975733
-0.698624
-0.419741
-0.140058
67.2921
67.2983
67.3142
67.3402
67.3765
67.422
67.4809
67.5396
67.6225
67.6876
67.7697
67.8174
67.8642
-2.61918
-2.48695
-2.47538
-2.17248
-2.04523
-1.76157
-1.52124
-1.25571
-0.981228
-0.702616
-0.422166
-0.140876
67.2897
67.2958
67.3115
67.3373
67.3737
67.4195
67.4791
67.5395
67.6249
67.6943
67.7801
67.8317
67.8812
-2.63114
-2.49853
-2.48708
-2.18317
-2.05559
-1.77066
-1.52933
-1.26254
-0.98667
-0.706572
-0.42457
-0.141688
67.2875
67.2934
67.309
67.3346
67.3709
67.4171
67.4773
67.5396
67.6274
67.7011
67.7913
67.847
67.8995
-2.64267
-2.50968
-2.49835
-2.1935
-2.06562
-1.77947
-1.53719
-1.26919
-0.991969
-0.710426
-0.426915
-0.142479
67.2856
67.2913
67.3066
67.3321
67.3684
67.4148
67.4757
67.5398
67.63
67.7082
67.803
67.863
67.919
-2.6536
-2.52024
-2.50902
-2.20331
-2.07515
-1.78786
-1.54469
-1.27554
-0.997036
-0.714115
-0.42916
-0.143237
67.2839
67.2895
67.3045
67.3298
67.366
67.4127
67.4743
67.5402
67.6328
67.7153
67.815
67.8795
67.9392
-2.66378
-2.53003
-2.51891
-2.21245
-2.08404
-1.79571
-1.55171
-1.28149
-1.00179
-0.717577
-0.431267
-0.14395
67.2827
67.2879
67.3027
67.3278
67.3639
67.4108
67.473
67.5406
67.6356
67.7222
67.8269
67.8958
67.9594
-2.67306
-2.53893
-2.52789
-2.22077
-2.09214
-1.80287
-1.55813
-1.28694
-1.00614
-0.720751
-0.4332
-0.144603
67.2818
67.2868
67.3012
67.326
67.362
67.4091
67.4719
67.5411
67.6382
67.7287
67.8384
67.9116
67.9791
-2.68132
-2.5468
-2.53582
-2.22815
-2.09933
-1.80924
-1.56384
-1.29179
-1.01002
-0.723583
-0.434926
-0.145187
67.2816
67.286
67.3
67.3246
67.3605
67.4077
67.471
67.5416
67.6407
67.7346
67.8488
67.9261
67.9975
-2.68844
-2.55357
-2.54259
-2.23449
-2.10551
-1.81471
-1.56875
-1.29597
-1.01337
-0.726024
-0.436414
-0.14569
67.2814
67.2854
67.299
67.3234
67.3593
67.4066
67.4703
67.5421
67.6428
67.7396
67.8577
67.9388
68.0137
-2.69434
-2.5591
-2.5481
-2.23967
-2.11055
-1.81918
-1.57278
-1.2994
-1.01612
-0.72803
-0.437637
-0.146104
67.2841
67.2856
67.2984
67.3226
67.3583
67.4058
67.4698
67.5425
67.6445
67.7435
67.8647
67.9491
68.0269
-2.69896
-2.56343
-2.5523
-2.24365
-2.11443
-1.8226
-1.57587
-1.30203
-1.01822
-0.729568
-0.438575
-0.146421
67.2831
67.2852
67.2978
67.322
67.3577
67.4052
67.4694
67.5428
67.6457
67.7463
67.8691
67.9566
68.0365
-2.70223
-2.56624
-2.55511
-2.24634
-2.11704
-1.8249
-1.57797
-1.30381
-1.01965
-0.730608
-0.439209
-0.146635
67.2898
67.2861
67.2977
67.3218
67.3575
67.405
67.4693
67.543
67.6464
67.748
67.8715
67.9608
68.0417
-2.70405
-2.56817
-2.55652
-2.24777
-2.11842
-1.82603
-1.57904
-1.30471
-1.02037
-0.731135
-0.439529
-0.146742
67.3229
67.3218
67.3357
67.3607
67.3951
67.4357
67.4892
67.5315
67.5993
67.6286
67.7014
67.7223
67.7557
-2.53925
-2.40645
-2.39036
-2.09372
-1.96559
-1.69071
-1.45596
-1.19916
-0.935307
-0.668674
-0.401253
-0.133715
67.3163
67.3201
67.3352
67.3603
67.3948
67.4356
67.4891
67.5318
67.5995
67.6304
67.6995
67.7225
67.7571
-2.53999
-2.40743
-2.39194
-2.09498
-1.96685
-1.69188
-1.45694
-1.19998
-0.935951
-0.669139
-0.401533
-0.13381
67.3143
67.3189
67.3342
67.3595
67.394
67.435
67.4887
67.5319
67.5999
67.632
67.7008
67.7239
67.7596
-2.5426
-2.41058
-2.39515
-2.09777
-1.96951
-1.6942
-1.45895
-1.20165
-0.937274
-0.670094
-0.402109
-0.134003
67.3107
67.3168
67.3327
67.3581
67.3929
67.4341
67.488
67.5318
67.6002
67.6341
67.7021
67.7265
67.7628
-2.54691
-2.41511
-2.3999
-2.10191
-1.97349
-1.69764
-1.46196
-1.20417
-0.939256
-0.671524
-0.402974
-0.134294
67.3079
67.3146
67.3309
67.3564
67.3913
67.4328
67.4869
67.5317
67.6006
67.6365
67.7041
67.73
67.7668
-2.55284
-2.42123
-2.40614
-2.10739
-1.97875
-1.70217
-1.46593
-1.20748
-0.941871
-0.673412
-0.404116
-0.134677
67.305
67.3122
67.3287
67.3544
67.3894
67.4313
67.4856
67.5314
67.6011
67.6392
67.7067
67.7344
67.7716
-2.56025
-2.42868
-2.41373
-2.11409
-1.98518
-1.70772
-1.4708
-1.21155
-0.945084
-0.675734
-0.405521
-0.13515
67.3022
67.3096
67.3262
67.352
67.3872
67.4294
67.484
67.5309
67.6015
67.6422
67.7098
67.7395
67.7773
-2.56898
-2.43743
-2.42258
-2.12194
-1.99271
-1.71421
-1.47651
-1.21632
-0.948855
-0.678459
-0.407171
-0.135704
67.2993
67.3069
67.3236
67.3494
67.3848
67.4273
67.4822
67.5303
67.602
67.6453
67.7135
67.7454
67.7839
-2.57888
-2.44725
-2.43252
-2.13079
-2.0012
-1.72155
-1.48297
-1.22173
-0.953131
-0.681551
-0.409044
-0.136335
67.2965
67.3041
67.3207
67.3466
67.382
67.4249
67.4801
67.5296
67.6024
67.6487
67.7176
67.752
67.7914
-2.58977
-2.458
-2.44338
-2.1405
-2.01053
-1.72963
-1.49009
-1.2277
-0.957852
-0.684968
-0.411115
-0.137031
67.2936
67.3012
67.3178
67.3436
67.3791
67.4223
67.4779
67.5287
67.6029
67.6522
67.7222
67.7593
67.7998
-2.60145
-2.4695
-2.45499
-2.15091
-2.02054
-1.73832
-1.49776
-1.23414
-0.962951
-0.688661
-0.413354
-0.137785
67.2907
67.2982
67.3148
67.3405
67.376
67.4195
67.4755
67.5277
67.6034
67.6559
67.7273
67.7673
67.8091
-2.61371
-2.48153
-2.46715
-2.16185
-2.03109
-1.74749
-1.50587
-1.24095
-0.968353
-0.692575
-0.415729
-0.138585
67.2879
67.2953
67.3117
67.3374
67.3729
67.4166
67.473
67.5265
67.604
67.6597
67.7329
67.776
67.8193
-2.62634
-2.49389
-2.47966
-2.17315
-2.042
-1.757
-1.51429
-1.24804
-0.973976
-0.696653
-0.418204
-0.13942
67.2851
67.2925
67.3087
67.3342
67.3696
67.4136
67.4704
67.5253
67.6046
67.6636
67.7389
67.7854
67.8306
-2.63912
-2.50639
-2.49231
-2.18462
-2.05309
-1.76669
-1.52289
-1.25529
-0.979733
-0.700832
-0.420741
-0.140275
67.2825
67.2897
67.3057
67.3311
67.3664
67.4106
67.4677
67.5241
67.6053
67.6676
67.7456
67.7956
67.8429
-2.65185
-2.5188
-2.50489
-2.19607
-2.0642
-1.7764
-1.53153
-1.26258
-0.985532
-0.705044
-0.423301
-0.141139
67.28
67.2871
67.3029
67.3281
67.3633
67.4076
67.4651
67.5228
67.606
67.6717
67.7527
67.8065
67.8564
-2.66431
-2.53094
-2.5172
-2.20732
-2.07513
-1.78599
-1.54007
-1.2698
-0.99128
-0.709222
-0.425842
-0.141997
67.2778
67.2847
67.3003
67.3252
67.3602
67.4046
67.4626
67.5217
67.6069
67.6759
67.7604
67.8181
67.8708
-2.67632
-2.5426
-2.52905
-2.21818
-2.0857
-1.79529
-1.54838
-1.27682
-0.996881
-0.713298
-0.428321
-0.142835
67.2758
67.2825
67.2978
67.3225
67.3574
67.4019
67.4603
67.5206
67.6079
67.6802
67.7684
67.8302
67.8861
-2.6877
-2.55363
-2.54025
-2.22849
-2.09576
-1.80416
-1.5563
-1.28354
-1.00224
-0.717201
-0.430698
-0.143638
67.2741
67.2806
67.2956
67.32
67.3547
67.3993
67.458
67.5197
67.609
67.6845
67.7767
67.8426
67.9019
-2.69828
-2.56385
-2.55064
-2.23809
-2.10514
-1.81244
-1.56372
-1.28984
-1.00727
-0.720867
-0.43293
-0.144393
67.2728
67.2791
67.2937
67.3178
67.3523
67.3969
67.4561
67.5189
67.6101
67.6887
67.7849
67.8549
67.9177
-2.70791
-2.57313
-2.56005
-2.24683
-2.11369
-1.82
-1.5705
-1.2956
-1.01188
-0.72423
-0.43498
-0.145086
67.272
67.2778
67.2921
67.3159
67.3502
67.3948
67.4543
67.5183
67.6112
67.6927
67.7927
67.8666
67.9329
-2.71646
-2.58132
-2.56835
-2.25457
-2.12127
-1.82673
-1.57655
-1.30075
-1.016
-0.727233
-0.43681
-0.145706
67.2717
67.277
67.2908
67.3143
67.3485
67.3931
67.4528
67.5178
67.6123
67.6962
67.7997
67.8774
67.947
-2.72383
-2.58835
-2.57545
-2.26122
-2.12778
-1.83251
-1.58174
-1.30517
-1.01954
-0.729822
-0.43839
-0.146241
67.2716
67.2765
67.2898
67.313
67.347
67.3917
67.4516
67.5174
67.6132
67.6992
67.8056
67.8866
67.9592
-2.72992
-2.59409
-2.58121
-2.26665
-2.1331
-1.83723
-1.58601
-1.30881
-1.02246
-0.731951
-0.439689
-0.146681
67.2744
67.2766
67.2891
67.3121
67.346
67.3906
67.4507
67.5171
67.6139
67.7015
67.81
67.8939
67.9691
-2.73469
-2.59858
-2.5856
-2.27083
-2.13718
-1.84085
-1.58928
-1.31159
-1.02469
-0.733583
-0.440685
-0.147018
67.2728
67.2761
67.2885
67.3115
67.3453
67.3898
67.45
67.5169
67.6144
67.7031
67.8126
67.8989
67.9759
-2.73805
-2.60149
-2.58854
-2.27364
-2.13994
-1.84327
-1.59149
-1.31348
-1.0262
-0.734688
-0.441359
-0.147246
67.2795
67.277
67.2884
67.3113
67.345
67.3896
67.4498
67.5168
67.6148
67.7042
67.8138
67.9007
67.9793
-2.73991
-2.60347
-2.59001
-2.27514
-2.14139
-1.84446
-1.59262
-1.31444
-1.02697
-0.735247
-0.441699
-0.14736
67.3123
67.3117
67.3257
67.3505
67.3845
67.4248
67.4777
67.5201
67.5874
67.6178
67.6895
67.7121
67.7461
-2.57676
-2.44165
-2.42179
-2.11828
-1.98403
-1.70451
-1.46443
-1.20389
-0.937536
-0.669363
-0.401208
-0.133533
67.3057
67.3102
67.3252
67.3501
67.3842
67.4246
67.4776
67.5203
67.5876
67.6195
67.6874
67.7122
67.7475
-2.57759
-2.44274
-2.42349
-2.11963
-1.98536
-1.70575
-1.46546
-1.20475
-0.938216
-0.669853
-0.401502
-0.133632
67.3037
67.3089
67.3242
67.3492
67.3834
67.4239
67.4771
67.5202
67.5877
67.6209
67.6886
67.7135
67.7499
-2.5804
-2.44612
-2.42693
-2.12261
-1.9882
-1.70821
-1.46759
-1.20652
-0.939615
-0.670862
-0.402111
-0.133836
67.3
67.3067
67.3227
67.3478
67.3821
67.4229
67.4761
67.5199
67.5878
67.6227
67.6895
67.7158
67.7528
-2.58504
-2.45099
-2.43203
-2.12703
-1.99245
-1.71187
-1.47079
-1.20919
-0.941711
-0.672374
-0.403024
-0.134143
67.2972
67.3045
67.3208
67.346
67.3805
67.4215
67.4749
67.5194
67.5879
67.6247
67.6909
67.7188
67.7564
-2.5914
-2.45755
-2.43872
-2.13288
-1.99805
-1.71669
-1.475
-1.2127
-0.944479
-0.674371
-0.404233
-0.134549
67.2943
67.302
67.3185
67.3438
67.3784
67.4197
67.4733
67.5187
67.5878
67.6268
67.6928
67.7226
67.7606
-2.59932
-2.46554
-2.44687
-2.14004
-2.00492
-1.7226
-1.48017
-1.21702
-0.947885
-0.676831
-0.405721
-0.135049
67.2915
67.2994
67.316
67.3414
67.376
67.4175
67.4713
67.5178
67.5877
67.6289
67.695
67.7268
67.7655
-2.60867
-2.47491
-2.45636
-2.14841
-2.01295
-1.72951
-1.48624
-1.22209
-0.951886
-0.679721
-0.407471
-0.135638
67.2886
67.2966
67.3132
67.3386
67.3733
67.4151
67.469
67.5165
67.5874
67.6311
67.6974
67.7315
67.7709
-2.61925
-2.48542
-2.46702
-2.15786
-2.02201
-1.73733
-1.49312
-1.22784
-0.956429
-0.683005
-0.40946
-0.136307
67.2857
67.2937
67.3103
67.3357
67.3704
67.4123
67.4665
67.515
67.5869
67.6331
67.6999
67.7365
67.7767
-2.63088
-2.49693
-2.47867
-2.16822
-2.03198
-1.74595
-1.5007
-1.23419
-0.961452
-0.686639
-0.411662
-0.137048
67.2827
67.2907
67.3072
67.3325
67.3672
67.4093
67.4636
67.5132
67.5863
67.635
67.7024
67.7417
67.7829
-2.64333
-2.5092
-2.49111
-2.17934
-2.04269
-1.75523
-1.50889
-1.24106
-0.966885
-0.690572
-0.414047
-0.137852
67.2798
67.2877
67.3041
67.3292
67.3638
67.4061
67.4605
67.5111
67.5854
67.6366
67.7049
67.747
67.7894
-2.65638
-2.52205
-2.50414
-2.19103
-2.05398
-1.76503
-1.51755
-1.24833
-0.972649
-0.694748
-0.416581
-0.138706
67.2769
67.2847
67.3009
67.3259
67.3603
67.4026
67.4572
67.5087
67.5844
67.6379
67.7072
67.7522
67.796
-2.6698
-2.53523
-2.51753
-2.2031
-2.06565
-1.7752
-1.52655
-1.25591
-0.978657
-0.699104
-0.419225
-0.139597
67.2741
67.2818
67.2978
67.3225
67.3567
67.3991
67.4538
67.5061
67.5832
67.6388
67.7095
67.7574
67.8029
-2.68337
-2.54853
-2.53106
-2.21535
-2.07753
-1.78557
-1.53575
-1.26366
-0.984816
-0.703574
-0.42194
-0.140514
67.2714
67.2789
67.2947
67.3191
67.3531
67.3954
67.4502
67.5033
67.5819
67.6395
67.7117
67.7625
67.8099
-2.69686
-2.56173
-2.54451
-2.22757
-2.08943
-1.79598
-1.54501
-1.27147
-0.991029
-0.708087
-0.424683
-0.14144
67.2689
67.2763
67.2917
67.3159
67.3496
67.3918
67.4466
67.5004
67.5806
67.6399
67.7139
67.7676
67.8173
-2.71004
-2.57462
-2.55765
-2.23957
-2.10113
-1.80625
-1.55417
-1.27922
-0.997194
-0.712569
-0.42741
-0.142361
67.2666
67.2738
67.2889
67.3128
67.3462
67.3882
67.4431
67.4976
67.5792
67.6403
67.7162
67.7729
67.8249
-2.72273
-2.58699
-2.57029
-2.25117
-2.11247
-1.81623
-1.56307
-1.28676
-1.00321
-0.716946
-0.430073
-0.143262
67.2645
67.2715
67.2864
67.3098
67.3429
67.3848
67.4397
67.4948
67.5778
67.6405
67.7186
67.7782
67.8329
-2.73472
-2.59867
-2.58222
-2.26216
-2.12325
-1.82574
-1.57158
-1.29398
-1.00897
-0.721143
-0.43263
-0.144126
67.2628
67.2695
67.284
67.3072
67.3399
67.3816
67.4365
67.4921
67.5765
67.6408
67.721
67.7836
67.841
-2.74584
-2.60946
-2.59327
-2.27239
-2.13329
-1.83462
-1.57955
-1.30075
-1.01438
-0.725087
-0.435033
-0.14494
67.2615
67.2679
67.282
67.3047
67.3371
67.3786
67.4335
67.4897
67.5753
67.641
67.7234
67.7887
67.8488
-2.75594
-2.61925
-2.60328
-2.2817
-2.14245
-1.84274
-1.58684
-1.30696
-1.01935
-0.72871
-0.437243
-0.145688
67.2606
67.2666
67.2803
67.3027
67.3347
67.376
67.4309
67.4875
67.5743
67.6412
67.7255
67.7934
67.8561
-2.76488
-2.62787
-2.61209
-2.28994
-2.15057
-1.84995
-1.59334
-1.3125
-1.02378
-0.731947
-0.439217
-0.146357
67.2603
67.2657
67.2789
67.3009
67.3327
67.3738
67.4286
67.4856
67.5733
67.6413
67.7273
67.7974
67.8623
-2.77258
-2.63527
-2.61961
-2.29701
-2.15754
-1.85615
-1.59893
-1.31727
-1.02761
-0.73474
-0.440922
-0.146935
67.2601
67.2652
67.2778
67.2995
67.331
67.3719
67.4267
67.4841
67.5724
67.6413
67.7283
67.8005
67.8671
-2.77893
-2.64129
-2.62571
-2.30278
-2.16324
-1.86122
-1.60351
-1.32118
-1.03075
-0.737038
-0.442325
-0.147411
67.2627
67.2652
67.2771
67.2985
67.3298
67.3705
67.4252
67.4829
67.5717
67.6412
67.7287
67.8024
67.8704
-2.78389
-2.64599
-2.63035
-2.30721
-2.1676
-1.8651
-1.60703
-1.32419
-1.03316
-0.7388
-0.443401
-0.147776
67.2613
67.2648
67.2765
67.2978
67.3289
67.3696
67.4242
67.482
67.5712
67.6409
67.7283
67.8031
67.8719
-2.78738
-2.64903
-2.63346
-2.31019
-2.17056
-1.8677
-1.60941
-1.32622
-1.03479
-0.739992
-0.44413
-0.148023
67.2678
67.2657
67.2763
67.2975
67.3286
67.3692
67.4238
67.4816
67.5709
67.6412
67.7273
67.7971
67.8722
-2.7893
-2.65107
-2.63502
-2.31177
-2.1721
-1.86898
-1.61062
-1.32725
-1.03562
-0.740597
-0.4445
-0.148147
67.2999
67.2996
67.3135
67.3379
67.3714
67.4111
67.4633
67.5057
67.5725
67.604
67.6746
67.699
67.7336
-2.62472
-2.48597
-2.46122
-2.14884
-2.00678
-1.72129
-1.4745
-1.20932
-0.939898
-0.669894
-0.400938
-0.133228
67.2933
67.298
67.3129
67.3374
67.371
67.4109
67.4632
67.5058
67.5726
67.6056
67.6724
67.6991
67.7349
-2.62566
-2.48721
-2.46306
-2.15031
-2.00822
-1.72262
-1.47561
-1.21023
-0.940623
-0.670415
-0.401249
-0.133332
67.2912
67.2967
67.3119
67.3365
67.3701
67.4101
67.4625
67.5055
67.5726
67.6068
67.6733
67.7002
67.7371
-2.62874
-2.49089
-2.4668
-2.15353
-2.01128
-1.72527
-1.47789
-1.21213
-0.942116
-0.671491
-0.401898
-0.133549
67.2876
67.2945
67.3103
67.335
67.3688
67.4089
67.4614
67.505
67.5723
67.6082
67.6737
67.7021
67.7398
-2.63381
-2.4962
-2.47235
-2.1583
-2.01586
-1.7292
-1.48131
-1.21498
-0.944355
-0.673105
-0.402872
-0.133876
67.2847
67.2923
67.3083
67.3331
67.367
67.4073
67.4599
67.5041
67.5719
67.6096
67.6745
67.7046
67.7428
-2.64073
-2.50334
-2.47963
-2.16463
-2.0219
-1.73439
-1.48583
-1.21874
-0.947316
-0.67524
-0.404163
-0.13431
67.2818
67.2897
67.306
67.3309
67.3647
67.4053
67.4579
67.5029
67.5713
67.611
67.6755
67.7075
67.7462
-2.64935
-2.51202
-2.48849
-2.17236
-2.02932
-1.74075
-1.49139
-1.22337
-0.950964
-0.677872
-0.405756
-0.134845
67.2789
67.287
67.3034
67.3283
67.3621
67.4028
67.4555
67.5013
67.5703
67.6121
67.6765
67.7106
67.7499
-2.6595
-2.52219
-2.49882
-2.18141
-2.03799
-1.7482
-1.49792
-1.22881
-0.955255
-0.68097
-0.407632
-0.135476
67.276
67.2841
67.3005
67.3253
67.3592
67.4
67.4527
67.4993
67.5691
67.6129
67.6773
67.7137
67.7537
-2.67098
-2.5336
-2.51041
-2.19163
-2.0478
-1.75664
-1.50532
-1.235
-0.960136
-0.684496
-0.409767
-0.136195
67.273
67.2811
67.2975
67.3222
67.3559
67.3968
67.4495
67.4968
67.5675
67.6133
67.6776
67.7165
67.7572
-2.68357
-2.54606
-2.52308
-2.20284
-2.05858
-1.76595
-1.5135
-1.24184
-0.965542
-0.688405
-0.412136
-0.136993
67.27
67.2781
67.2943
67.3188
67.3524
67.3932
67.4459
67.4938
67.5654
67.6129
67.6773
67.7187
67.7603
-2.69703
-2.55936
-2.5366
-2.21486
-2.07019
-1.77598
-1.52234
-1.24925
-0.971399
-0.692643
-0.414706
-0.137859
67.2671
67.275
67.291
67.3153
67.3487
67.3894
67.442
67.4904
67.5629
67.6118
67.6762
67.7199
67.7626
-2.71112
-2.57324
-2.55075
-2.22751
-2.08242
-1.78659
-1.53171
-1.25711
-0.977624
-0.697151
-0.417442
-0.138781
67.2641
67.2719
67.2877
67.3117
67.3448
67.3854
67.4377
67.4864
67.5599
67.6098
67.6741
67.72
67.7638
-2.7256
-2.58748
-2.56528
-2.24057
-2.09508
-1.79761