/*--------------------------------*- C++ -*----------------------------------*\
| =========                 |                                                 |
| \\      /  F ield         | OpenFOAM: The Open Source CFD Toolbox           |
|  \\    /   O peration     | Version:  2306                                  |
|   \\  /    A nd           | Website:  www.openfoam.com                      |
|    \\/     M anipulation  |                                                 |
\*---------------------------------------------------------------------------*/
FoamFile
{
    version     2.0;
    format      ascii;
    arch        "LSB;label=32;scalar=64";
    class       volScalarField;
    location    "3.8";
    object      p;
}
// * * * * * * * * * * * * * * * * * * * * * * * * * * * * * * * * * * * * * //

dimensions      [0 2 -2 0 0 0 0];

internalField   nonuniform List<scalar> 
288632
(
62.0244
62.016
62.0275
62.0511
62.0839
62.1233
62.1744
62.2109
62.2865
62.2981
62.3872
62.3949
62.4305
-1.81922
-1.70876
-1.74504
-1.49362
-1.4291
-1.22525
-1.05686
-0.871914
-0.681306
-0.487831
-0.293185
-0.0978881
62.0175
62.0145
62.0269
62.0506
62.0835
62.123
62.1742
62.211
62.2865
62.2988
62.3873
62.3947
62.431
-1.81989
-1.70966
-1.7466
-1.49482
-1.4303
-1.22635
-1.05778
-0.872663
-0.681896
-0.488254
-0.29344
-0.0979739
62.0153
62.013
62.0257
62.0495
62.0825
62.1222
62.1735
62.2108
62.2864
62.3001
62.388
62.3957
62.4328
-1.82242
-1.7127
-1.74968
-1.4975
-1.43282
-1.22854
-1.05965
-0.874203
-0.6831
-0.489116
-0.293958
-0.0981471
62.0117
62.0106
62.0239
62.0479
62.081
62.1209
62.1724
62.2104
62.2862
62.3016
62.3887
62.3978
62.4352
-1.82668
-1.71711
-1.75424
-1.50149
-1.43658
-1.23178
-1.06244
-0.876505
-0.684899
-0.490404
-0.294732
-0.0984056
62.0085
62.008
62.0216
62.0457
62.079
62.1192
62.1708
62.2098
62.2859
62.3034
62.3898
62.4004
62.4382
-1.83258
-1.72312
-1.76024
-1.50679
-1.44153
-1.23605
-1.06611
-0.879539
-0.687268
-0.492101
-0.295752
-0.0987462
62.0053
62.0052
62.0189
62.0432
62.0766
62.117
62.1689
62.2091
62.2854
62.3055
62.3913
62.4037
62.4418
-1.84
-1.73048
-1.76755
-1.51328
-1.4476
-1.24128
-1.07062
-0.88326
-0.690175
-0.494183
-0.297004
-0.0991642
62.002
62.0021
62.0159
62.0403
62.0738
62.1145
62.1666
62.2081
62.2849
62.3079
62.3934
62.4076
62.4463
-1.84879
-1.73915
-1.77609
-1.5209
-1.45469
-1.2474
-1.0759
-0.887618
-0.693581
-0.496623
-0.298471
-0.0996541
61.9986
61.9988
62.0127
62.037
62.0706
62.1116
62.1641
62.2069
62.2844
62.3106
62.396
62.4125
62.4516
-1.85882
-1.74894
-1.78571
-1.5295
-1.4627
-1.25432
-1.08186
-0.892549
-0.697436
-0.499386
-0.300133
-0.100209
61.9951
61.9953
62.0092
62.0335
62.0671
62.1084
62.1613
62.2057
62.284
62.3136
62.3993
62.4181
62.458
-1.86991
-1.75972
-1.79627
-1.53898
-1.47151
-1.26194
-1.08843
-0.897983
-0.701686
-0.502433
-0.301965
-0.100821
61.9916
61.9917
62.0055
62.0298
62.0634
62.105
62.1582
62.2043
62.2836
62.317
62.4033
62.4249
62.4655
-1.88188
-1.7713
-1.8076
-1.54916
-1.48098
-1.27014
-1.09551
-0.903839
-0.706269
-0.505719
-0.303943
-0.101482
61.988
61.9881
62.0017
62.0259
62.0595
62.1013
62.1551
62.2029
62.2833
62.3207
62.4083
62.4327
62.4744
-1.89454
-1.7835
-1.81953
-1.5599
-1.49098
-1.2788
-1.10299
-0.910031
-0.711116
-0.509196
-0.306035
-0.102181
61.9845
61.9845
61.9979
62.022
62.0555
62.0976
62.1518
62.2016
62.2832
62.325
62.4142
62.4419
62.4848
-1.90767
-1.79612
-1.83186
-1.57102
-1.50133
-1.28778
-1.11076
-0.916462
-0.716154
-0.512812
-0.308212
-0.102909
61.981
61.9808
61.9941
62.018
62.0515
62.0938
62.1486
62.2002
62.2834
62.3298
62.4212
62.4524
62.4969
-1.92106
-1.80895
-1.84439
-1.58236
-1.51189
-1.29695
-1.11869
-0.923035
-0.721305
-0.516509
-0.310438
-0.103654
61.9776
61.9773
61.9904
62.0141
62.0475
62.09
62.1453
62.1991
62.2838
62.3352
62.4294
62.4643
62.5106
-1.93451
-1.82179
-1.85693
-1.59372
-1.52248
-1.30615
-1.12666
-0.929645
-0.726488
-0.520231
-0.31268
-0.104403
61.9744
61.974
61.9868
62.0103
62.0436
62.0862
62.1422
62.198
62.2845
62.3412
62.4387
62.4777
62.5261
-1.94778
-1.83444
-1.86928
-1.60493
-1.53293
-1.31525
-1.13454
-0.936186
-0.731619
-0.523918
-0.314902
-0.105147
61.9715
61.9709
61.9835
62.0066
62.0398
62.0827
62.1393
62.1972
62.2856
62.3476
62.4491
62.4923
62.5432
-1.96068
-1.84669
-1.88124
-1.6158
-1.54307
-1.32409
-1.14221
-0.942551
-0.736616
-0.527509
-0.317066
-0.105871
61.9688
61.968
61.9803
62.0032
62.0363
62.0793
62.1366
62.1966
62.2869
62.3544
62.4605
62.508
62.5617
-1.973
-1.85836
-1.89262
-1.62617
-1.55274
-1.33252
-1.14953
-0.948637
-0.741395
-0.530945
-0.319137
-0.106564
61.9665
61.9655
61.9775
62.0001
62.033
62.0762
62.1341
62.1963
62.2885
62.3613
62.4724
62.5244
62.5812
-1.98455
-1.86925
-1.90322
-1.63586
-1.56179
-1.34042
-1.15639
-0.954341
-0.745876
-0.534169
-0.321081
-0.107215
61.9646
61.9634
61.975
61.9974
62.0301
62.0735
62.132
62.1961
62.2903
62.3683
62.4845
62.541
62.6011
-1.99515
-1.87921
-1.9129
-1.64472
-1.57006
-1.34765
-1.16267
-0.959567
-0.749985
-0.537125
-0.322864
-0.107812
61.9633
61.9616
61.9729
61.9949
62.0275
62.0711
62.1301
62.1961
62.2922
62.375
62.4964
62.5572
62.6207
-2.00463
-1.88806
-1.92148
-1.65261
-1.57741
-1.35409
-1.16827
-0.964227
-0.75365
-0.539763
-0.324456
-0.108345
61.9625
61.9603
61.9711
61.9929
62.0254
62.069
62.1286
62.1963
62.294
62.3811
62.5074
62.5724
62.6392
-2.01287
-1.89572
-1.92884
-1.65941
-1.58374
-1.35963
-1.17309
-0.968242
-0.756808
-0.542037
-0.325828
-0.108805
61.9622
61.9594
61.9698
61.9913
62.0236
62.0674
62.1273
62.1965
62.2956
62.3864
62.5171
62.5858
62.6557
-2.01974
-1.90201
-1.93485
-1.66499
-1.58892
-1.36418
-1.17705
-0.971542
-0.759405
-0.543907
-0.326956
-0.109183
61.9639
61.9592
61.9688
61.9902
62.0224
62.0662
62.1264
62.1967
62.297
62.3906
62.5249
62.5968
62.6694
-2.02516
-1.90697
-1.93945
-1.6693
-1.5929
-1.36766
-1.18008
-0.974071
-0.761396
-0.54534
-0.327821
-0.109472
61.9638
61.9587
61.9681
61.9894
62.0215
62.0654
62.1258
62.1968
62.2979
62.3936
62.5301
62.6049
62.6794
-2.02903
-1.91024
-1.94253
-1.67222
-1.5956
-1.37
-1.18214
-0.975787
-0.762744
-0.54631
-0.328406
-0.109668
61.9697
61.9594
61.968
61.9891
62.0211
62.0651
62.1256
62.197
62.2986
62.3953
62.5333
62.6088
62.6855
-2.03127
-1.91247
-1.94406
-1.6738
-1.597
-1.37117
-1.18319
-0.976666
-0.763431
-0.546804
-0.328703
-0.109766
62.016
62.0128
62.0252
62.0488
62.0816
62.121
62.172
62.2085
62.2839
62.296
62.3843
62.3924
62.4291
-1.82476
-1.71483
-1.75093
-1.49824
-1.43256
-1.22805
-1.05858
-0.872913
-0.681833
-0.488046
-0.293237
-0.0978797
62.0091
62.0111
62.0247
62.0483
62.0812
62.1207
62.1718
62.2086
62.2839
62.2975
62.382
62.3922
62.43
-1.82538
-1.71575
-1.75252
-1.49947
-1.43379
-1.22917
-1.05951
-0.873673
-0.682432
-0.488476
-0.293496
-0.0979669
62.0071
62.0095
62.0235
62.0472
62.0802
62.1198
62.171
62.2084
62.2838
62.2989
62.3822
62.3931
62.4319
-1.82794
-1.71885
-1.75566
-1.5022
-1.43635
-1.2314
-1.06141
-0.875235
-0.683653
-0.48935
-0.294021
-0.0981423
62.0037
62.0071
62.0216
62.0455
62.0786
62.1185
62.1699
62.208
62.2835
62.3004
62.3825
62.395
62.4343
-1.83227
-1.72334
-1.76031
-1.50626
-1.44017
-1.23469
-1.06424
-0.877571
-0.685477
-0.490656
-0.294806
-0.0984044
62.0006
62.0046
62.0192
62.0434
62.0766
62.1167
62.1683
62.2073
62.283
62.3021
62.3834
62.3975
62.4372
-1.83826
-1.72947
-1.76642
-1.51165
-1.44521
-1.23903
-1.06798
-0.880649
-0.68788
-0.492376
-0.29584
-0.0987496
61.9972
62.0018
62.0165
62.0408
62.0742
62.1145
62.1663
62.2064
62.2824
62.3041
62.3848
62.4007
62.4409
-1.84578
-1.73696
-1.77386
-1.51825
-1.45137
-1.24434
-1.07255
-0.884425
-0.690829
-0.494488
-0.297109
-0.0991735
61.9939
61.9988
62.0135
62.0378
62.0713
62.1119
62.1639
62.2053
62.2818
62.3062
62.3866
62.4046
62.4452
-1.8547
-1.74579
-1.78256
-1.526
-1.45858
-1.25056
-1.07791
-0.888848
-0.694284
-0.496963
-0.298597
-0.0996703
61.9904
61.9955
62.0102
62.0345
62.0681
62.1089
62.1612
62.204
62.2811
62.3086
62.389
62.4092
62.4505
-1.86487
-1.75575
-1.79235
-1.53476
-1.46672
-1.25759
-1.08397
-0.893854
-0.698197
-0.499766
-0.300283
-0.100233
61.9869
61.992
62.0067
62.031
62.0645
62.1056
62.1582
62.2025
62.2804
62.3112
62.392
62.4148
62.4567
-1.87612
-1.76673
-1.80311
-1.54439
-1.47568
-1.26534
-1.09065
-0.899372
-0.702511
-0.502859
-0.302143
-0.100855
61.9834
61.9884
62.003
62.0272
62.0607
62.102
62.155
62.2009
62.2797
62.3141
62.3957
62.4214
62.464
-1.88826
-1.77852
-1.81464
-1.55475
-1.48532
-1.27367
-1.09784
-0.905321
-0.707165
-0.506195
-0.30415
-0.101525
61.9798
61.9847
61.9992
62.0233
62.0568
62.0983
62.1517
62.1992
62.2791
62.3174
62.4
62.4289
62.4726
-1.90109
-1.79094
-1.82679
-1.56568
-1.49549
-1.28248
-1.10544
-0.911612
-0.712089
-0.509726
-0.306275
-0.102236
61.9762
61.9811
61.9954
62.0193
62.0527
62.0944
62.1482
62.1975
62.2786
62.3211
62.4053
62.4376
62.4827
-1.9144
-1.80378
-1.83934
-1.577
-1.50602
-1.29162
-1.11334
-0.91815
-0.717208
-0.513399
-0.308486
-0.102975
61.9727
61.9774
61.9915
62.0152
62.0485
62.0904
62.1447
62.1959
62.2783
62.3252
62.4115
62.4477
62.4943
-1.92798
-1.81684
-1.85211
-1.58854
-1.51677
-1.30094
-1.12141
-0.924833
-0.722444
-0.517157
-0.310749
-0.103731
61.9694
61.9739
61.9878
62.0113
62.0444
62.0864
62.1413
62.1943
62.2782
62.3299
62.4188
62.459
62.5076
-1.9416
-1.82991
-1.86488
-1.6001
-1.52754
-1.31031
-1.12951
-0.931555
-0.727714
-0.520941
-0.313028
-0.104494
61.9661
61.9705
61.9842
62.0074
62.0404
62.0825
62.1379
62.1928
62.2785
62.3349
62.4272
62.4718
62.5226
-1.95506
-1.84278
-1.87746
-1.61151
-1.53818
-1.31957
-1.13753
-0.93821
-0.732933
-0.52469
-0.315287
-0.10525
61.9632
61.9674
61.9807
62.0037
62.0365
62.0788
62.1347
62.1916
62.279
62.3404
62.4366
62.4858
62.5392
-1.96813
-1.85524
-1.88963
-1.62258
-1.54851
-1.32856
-1.14534
-0.944687
-0.738016
-0.528344
-0.317489
-0.105986
61.9605
61.9645
61.9776
62.0002
62.0328
62.0753
62.1317
62.1906
62.2798
62.3463
62.4469
62.5008
62.5572
-1.98061
-1.8671
-1.90121
-1.63313
-1.55836
-1.33716
-1.15279
-0.950881
-0.74288
-0.53184
-0.319597
-0.106692
61.9582
61.962
61.9747
61.9971
62.0295
62.072
62.129
62.1898
62.2809
62.3523
62.4577
62.5165
62.5762
-1.9923
-1.87818
-1.91201
-1.64299
-1.56757
-1.3452
-1.15977
-0.956688
-0.747442
-0.535121
-0.321575
-0.107355
61.9563
61.9598
61.9722
61.9942
62.0264
62.0691
62.1265
62.1892
62.2821
62.3583
62.4688
62.5325
62.5956
-2.00303
-1.8883
-1.92186
-1.65202
-1.57599
-1.35256
-1.16617
-0.96201
-0.751625
-0.538131
-0.32339
-0.107963
61.9549
61.9581
61.97
61.9918
62.0238
62.0665
62.1244
62.1888
62.2835
62.3641
62.4797
62.5481
62.6148
-2.01263
-1.8973
-1.93059
-1.66004
-1.58348
-1.35912
-1.17187
-0.966756
-0.755357
-0.540817
-0.325011
-0.108505
61.9541
61.9568
61.9682
61.9897
62.0216
62.0644
62.1227
62.1886
62.2848
62.3694
62.4898
62.5627
62.6329
-2.02097
-1.90509
-1.93808
-1.66696
-1.58992
-1.36476
-1.17678
-0.970845
-0.758573
-0.543132
-0.326408
-0.108974
61.9538
61.9559
61.9669
61.988
62.0198
62.0626
62.1213
62.1885
62.2861
62.374
62.4986
62.5757
62.649
-2.02792
-1.91148
-1.9442
-1.67264
-1.5952
-1.36939
-1.18082
-0.974207
-0.761219
-0.545037
-0.327557
-0.109359
61.9555
61.9556
61.9659
61.9868
62.0184
62.0613
62.1202
62.1885
62.2872
62.3776
62.5057
62.5863
62.6624
-2.0334
-1.91651
-1.94887
-1.67702
-1.59925
-1.37294
-1.18391
-0.976783
-0.763246
-0.546497
-0.328438
-0.109653
61.9554
61.9552
61.9652
61.986
62.0175
62.0604
62.1195
62.1885
62.2879
62.3802
62.5103
62.5938
62.6722
-2.03731
-1.91982
-1.952
-1.67999
-1.602
-1.37532
-1.186
-0.978531
-0.76462
-0.547485
-0.329034
-0.109853
61.9613
61.9559
61.965
61.9858
62.0172
62.0601
62.1193
62.1886
62.2885
62.3816
62.5137
62.5961
62.6778
-2.03958
-1.92208
-1.95355
-1.6816
-1.60342
-1.37651
-1.18707
-0.979425
-0.765318
-0.547987
-0.329336
-0.109953
62.0105
62.0079
62.0205
62.0441
62.0768
62.116
62.1668
62.2035
62.2785
62.2915
62.3789
62.3879
62.4257
-1.83743
-1.7279
-1.76241
-1.50734
-1.43919
-1.23321
-1.06168
-0.874619
-0.682631
-0.48828
-0.293205
-0.0978057
62.0039
62.0061
62.02
62.0436
62.0763
62.1157
62.1666
62.2036
62.2785
62.2931
62.3761
62.3876
62.4267
-1.83807
-1.72887
-1.76405
-1.50861
-1.44046
-1.23437
-1.06263
-0.875401
-0.683247
-0.488721
-0.29347
-0.097895
62.0018
62.0046
62.0187
62.0424
62.0753
62.1148
62.1658
62.2033
62.2782
62.2943
62.3764
62.3885
62.4286
-1.84072
-1.73208
-1.7673
-1.51143
-1.4431
-1.23666
-1.06458
-0.877007
-0.684501
-0.489618
-0.294009
-0.0980749
61.998
62.0022
62.0168
62.0407
62.0737
62.1134
62.1645
62.2027
62.2778
62.2957
62.3766
62.3902
62.4309
-1.84519
-1.73675
-1.77212
-1.51563
-1.44704
-1.24006
-1.0675
-0.879409
-0.686376
-0.490959
-0.294814
-0.0983439
61.9947
61.9997
62.0145
62.0386
62.0716
62.1115
62.1628
62.2019
62.2771
62.2972
62.3773
62.3924
62.4337
-1.85139
-1.7431
-1.77845
-1.52121
-1.45224
-1.24453
-1.07134
-0.882575
-0.688845
-0.492727
-0.295876
-0.0986983
61.9915
61.9969
62.0118
62.0359
62.0691
62.1092
62.1606
62.2007
62.2763
62.2988
62.3783
62.3953
62.4371
-1.85916
-1.75087
-1.78616
-1.52804
-1.4586
-1.25001
-1.07606
-0.886461
-0.691878
-0.494897
-0.297181
-0.0991338
61.9881
61.9938
62.0087
62.0329
62.0661
62.1064
62.158
62.1993
62.2753
62.3006
62.3795
62.3987
62.4411
-1.86837
-1.76003
-1.79517
-1.53605
-1.46605
-1.25643
-1.08158
-0.891014
-0.695433
-0.497442
-0.29871
-0.0996446
61.9847
61.9904
62.0054
62.0295
62.0627
62.1032
62.1551
62.1976
62.2742
62.3024
62.3812
62.4027
62.4458
-1.87888
-1.77036
-1.80533
-1.54511
-1.47447
-1.26369
-1.08783
-0.896171
-0.699461
-0.500327
-0.300445
-0.100224
61.9811
61.9869
62.0018
62.0259
62.0591
62.0997
62.1518
62.1957
62.2729
62.3043
62.3833
62.4075
62.4513
-1.8905
-1.78173
-1.81647
-1.55508
-1.48373
-1.27168
-1.09472
-0.901859
-0.703905
-0.503511
-0.302359
-0.100863
61.9775
61.9833
61.9981
62.022
62.0551
62.0959
62.1483
62.1936
62.2716
62.3063
62.3859
62.4131
62.4578
-1.90303
-1.79396
-1.82843
-1.5658
-1.4937
-1.2803
-1.10215
-0.907996
-0.708702
-0.506949
-0.304427
-0.101554
61.9739
61.9796
61.9942
62.018
62.051
62.0919
62.1445
62.1914
62.2703
62.3086
62.3889
62.4195
62.4653
-1.91627
-1.80682
-1.84102
-1.57712
-1.50422
-1.2894
-1.11
-0.914489
-0.713781
-0.51059
-0.306618
-0.102286
61.9703
61.9758
61.9903
62.0138
62.0467
62.0877
62.1406
62.189
62.2689
62.311
62.3926
62.4267
62.474
-1.93001
-1.82013
-1.85404
-1.58884
-1.51512
-1.29885
-1.11816
-0.92124
-0.719065
-0.514379
-0.308899
-0.103049
61.9668
61.9722
61.9864
62.0097
62.0423
62.0834
62.1366
62.1866
62.2677
62.3137
62.3971
62.4349
62.484
-1.94402
-1.83366
-1.86727
-1.60078
-1.52625
-1.30851
-1.1265
-0.928146
-0.724472
-0.518259
-0.311235
-0.10383
61.9634
61.9686
61.9825
62.0056
62.038
62.0791
62.1326
62.1842
62.2666
62.3167
62.4023
62.4441
62.4954
-1.95807
-1.8472
-1.88051
-1.61276
-1.53741
-1.3182
-1.13489
-0.935097
-0.729919
-0.522169
-0.313589
-0.104618
61.9601
61.9652
61.9788
62.0015
62.0337
62.0748
62.1287
62.1818
62.2657
62.32
62.4085
62.4545
62.5083
-1.97194
-1.86053
-1.89355
-1.62458
-1.54843
-1.32779
-1.14319
-0.941982
-0.735316
-0.526045
-0.315924
-0.105399
61.9571
61.962
61.9753
61.9977
62.0297
62.0707
62.125
62.1797
62.2651
62.3236
62.4155
62.4659
62.5226
-1.98541
-1.87343
-1.90617
-1.63604
-1.55913
-1.33711
-1.15127
-0.948688
-0.740576
-0.529824
-0.318202
-0.106161
61.9544
61.9591
61.9721
61.9941
62.0258
62.0668
62.1214
62.1777
62.2647
62.3275
62.4233
62.4782
62.5382
-1.99826
-1.8857
-1.91817
-1.64697
-1.56934
-1.34601
-1.159
-0.955103
-0.745612
-0.533443
-0.320384
-0.106892
61.952
61.9565
61.9691
61.9908
62.0222
62.0632
62.1181
62.176
62.2646
62.3316
62.4317
62.4912
62.5546
-2.0103
-1.89716
-1.92936
-1.65718
-1.57889
-1.35435
-1.16624
-0.96112
-0.750337
-0.536841
-0.322433
-0.107578
61.9501
61.9543
61.9665
61.9879
62.019
62.06
62.1151
62.1746
62.2647
62.3357
62.4403
62.5043
62.5716
-2.02134
-1.90763
-1.93956
-1.66653
-1.58762
-1.36199
-1.17287
-0.966636
-0.754672
-0.53996
-0.324313
-0.108208
61.9487
61.9525
61.9643
61.9853
62.0161
62.0571
62.1125
62.1734
62.2649
62.3397
62.4488
62.5172
62.5882
-2.03121
-1.91693
-1.9486
-1.67484
-1.59538
-1.36879
-1.17878
-0.971558
-0.758541
-0.542744
-0.325993
-0.108771
61.9479
61.9512
61.9625
61.9831
62.0137
62.0547
62.1103
62.1724
62.2653
62.3433
62.4567
62.5293
62.604
-2.03978
-1.92497
-1.95636
-1.68201
-1.60207
-1.37464
-1.18387
-0.975799
-0.761877
-0.545145
-0.327442
-0.109257
61.9476
61.9503
61.9611
61.9814
62.0118
62.0527
62.1086
62.1717
62.2657
62.3465
62.4636
62.5399
62.6181
-2.04692
-1.93158
-1.96269
-1.68788
-1.60754
-1.37944
-1.18806
-0.979286
-0.764621
-0.54712
-0.328634
-0.109656
61.9492
61.95
61.9601
61.9801
62.0104
62.0512
62.1073
62.1712
62.2661
62.3491
62.4692
62.5486
62.6297
-2.05255
-1.93677
-1.96753
-1.69242
-1.61175
-1.38312
-1.19126
-0.98196
-0.766725
-0.548635
-0.329548
-0.109962
61.9491
61.9495
61.9594
61.9793
62.0094
62.0502
62.1063
62.1709
62.2664
62.3509
62.4726
62.5551
62.6381
-2.05657
-1.94019
-1.97077
-1.69549
-1.61459
-1.38559
-1.19344
-0.983773
-0.76815
-0.549661
-0.330167
-0.110169
61.9549
61.9503
61.9592
61.979
62.009
62.0498
62.106
62.1708
62.2667
62.352
62.475
62.5588
62.6427
-2.05889
-1.94251
-1.97238
-1.69714
-1.61606
-1.38682
-1.19454
-0.984701
-0.768874
-0.550181
-0.33048
-0.110273
62.002
62.0006
62.0135
62.037
62.0695
62.1085
62.1589
62.1958
62.2703
62.2844
62.3705
62.3813
62.4197
-1.8577
-1.74732
-1.77944
-1.52088
-1.44897
-1.24073
-1.0661
-0.877006
-0.68367
-0.488501
-0.293067
-0.0976596
61.9955
61.9989
62.0129
62.0365
62.069
62.1082
62.1587
62.1958
62.2702
62.2861
62.3673
62.3809
62.4207
-1.85845
-1.74838
-1.78117
-1.52222
-1.4503
-1.24193
-1.06709
-0.877823
-0.684311
-0.488959
-0.293341
-0.0977518
61.9932
61.9973
62.0117
62.0353
62.068
62.1072
62.1578
62.1954
62.2698
62.2871
62.3675
62.3816
62.4225
-1.86125
-1.75177
-1.7846
-1.52518
-1.45307
-1.24432
-1.06912
-0.879495
-0.685615
-0.489891
-0.293901
-0.0979384
61.9895
61.995
62.0098
62.0336
62.0663
62.1057
62.1564
62.1946
62.2691
62.2883
62.3673
62.383
62.4247
-1.86597
-1.7567
-1.78967
-1.52959
-1.45719
-1.24788
-1.07217
-0.881996
-0.687565
-0.491285
-0.294737
-0.0982176
61.9862
61.9924
62.0075
62.0313
62.0641
62.1037
62.1544
62.1935
62.2682
62.2894
62.3675
62.3848
62.4272
-1.8725
-1.7634
-1.79633
-1.53544
-1.46264
-1.25256
-1.07618
-0.885293
-0.690135
-0.493123
-0.295841
-0.098586
61.9829
61.9895
62.0047
62.0286
62.0614
62.1011
62.152
62.192
62.2669
62.2905
62.3678
62.3871
62.4301
-1.88067
-1.77159
-1.80445
-1.54262
-1.46931
-1.25829
-1.0811
-0.889344
-0.693293
-0.495382
-0.297198
-0.0990389
61.9795
61.9863
62.0016
62.0255
62.0583
62.0981
62.1491
62.1902
62.2654
62.2916
62.3683
62.3899
62.4334
-1.89037
-1.78125
-1.81395
-1.55103
-1.47712
-1.26501
-1.08687
-0.894094
-0.696998
-0.498033
-0.298791
-0.0995707
61.976
61.9829
61.9982
62.022
62.0548
62.0947
62.1458
62.188
62.2636
62.2925
62.369
62.393
62.4371
-1.90142
-1.79214
-1.82465
-1.56055
-1.48595
-1.27262
-1.09341
-0.899479
-0.7012
-0.50104
-0.300599
-0.100174
61.9725
61.9793
61.9945
62.0182
62.0509
62.0909
62.1421
62.1854
62.2616
62.2933
62.3697
62.3966
62.4414
-1.91363
-1.80413
-1.83639
-1.57103
-1.49567
-1.281
-1.10062
-0.905424
-0.705841
-0.504362
-0.302596
-0.100841
61.9688
61.9756
61.9906
62.0142
62.0467
62.0867
62.1381
62.1826
62.2593
62.2941
62.3706
62.4007
62.4463
-1.9268
-1.817
-1.849
-1.58231
-1.50614
-1.29004
-1.1084
-0.911842
-0.710854
-0.507953
-0.304755
-0.101563
61.9652
61.9719
61.9867
62.01
62.0423
62.0823
62.1337
62.1794
62.2569
62.2946
62.3715
62.405
62.4517
-1.94072
-1.83056
-1.86227
-1.59421
-1.51719
-1.29959
-1.11664
-0.918641
-0.716167
-0.51176
-0.307045
-0.102328
61.9615
61.9681
61.9826
62.0057
62.0377
62.0777
62.1292
62.176
62.2543
62.2951
62.3727
62.4097
62.4578
-1.95514
-1.84458
-1.87599
-1.60654
-1.52866
-1.30952
-1.1252
-0.925717
-0.721701
-0.515726
-0.309432
-0.103126
61.9579
61.9643
61.9786
62.0014
62.0331
62.0729
62.1245
62.1724
62.2516
62.2955
62.3742
62.4149
62.4647
-1.96985
-1.85883
-1.88995
-1.61911
-1.54036
-1.31967
-1.13396
-0.932962
-0.72737
-0.519792
-0.311879
-0.103944
61.9545
61.9607
61.9747
61.9971
62.0284
62.0681
62.1197
62.1688
62.2489
62.2959
62.3762
62.4207
62.4725
-1.98459
-1.87308
-1.90391
-1.63171
-1.55211
-1.32987
-1.14278
-0.940261
-0.733084
-0.523892
-0.314348
-0.10477
61.9512
61.9572
61.9708
61.9929
62.0239
62.0633
62.1149
62.1652
62.2463
62.2964
62.3787
62.4272
62.4813
-1.99913
-1.8871
-1.91765
-1.64415
-1.56372
-1.33996
-1.15151
-0.947496
-0.738753
-0.527961
-0.3168
-0.105591
61.9481
61.9539
61.9672
61.9888
62.0194
62.0587
62.1103
62.1616
62.2439
62.297
62.3818
62.4344
62.4911
-2.01324
-1.90066
-1.93095
-1.65622
-1.57499
-1.34977
-1.16002
-0.954549
-0.744283
-0.531933
-0.319193
-0.106392
61.9454
61.9509
61.9639
61.985
62.0153
62.0543
62.1059
62.1583
62.2416
62.2977
62.3854
62.4423
62.5019
-2.02669
-1.91357
-1.94359
-1.66773
-1.58575
-1.35915
-1.16815
-0.961301
-0.74958
-0.535739
-0.321487
-0.10716
61.943
61.9483
61.9608
61.9816
62.0114
62.0501
62.1018
62.1551
62.2396
62.2987
62.3896
62.4507
62.5134
-2.03929
-1.9256
-1.95538
-1.67848
-1.59581
-1.36794
-1.17578
-0.967638
-0.754555
-0.539315
-0.323644
-0.107883
61.941
61.946
61.9581
61.9784
62.0078
62.0464
62.098
62.1524
62.2379
62.2997
62.394
62.4592
62.5253
-2.05083
-1.93659
-1.96612
-1.68832
-1.60502
-1.37599
-1.18278
-0.973451
-0.759122
-0.5426
-0.325625
-0.108547
61.9396
61.9442
61.9558
61.9757
62.0047
62.043
62.0947
62.1499
62.2364
62.3008
62.3984
62.4676
62.537
-2.06114
-1.94635
-1.97564
-1.69706
-1.61321
-1.38316
-1.18901
-0.97864
-0.7632
-0.545534
-0.327395
-0.10914
61.9387
61.9428
61.9539
61.9734
62.0021
62.0402
62.0918
62.1478
62.2352
62.3018
62.4026
62.4753
62.548
-2.07009
-1.95478
-1.98381
-1.7046
-1.62025
-1.38934
-1.19439
-0.983114
-0.766718
-0.548066
-0.328923
-0.109652
61.9383
61.9419
61.9524
61.9716
62
62.0379
62.0895
62.1462
62.2343
62.3028
62.4061
62.4821
62.5576
-2.07753
-1.96169
-1.99047
-1.71079
-1.62603
-1.3944
-1.1988
-0.986794
-0.769613
-0.55015
-0.330181
-0.110074
61.9399
61.9416
61.9514
61.9702
61.9984
62.0361
62.0877
62.1449
62.2337
62.3035
62.4088
62.4874
62.5654
-2.08339
-1.96712
-1.99556
-1.71555
-1.63046
-1.39828
-1.20219
-0.989616
-0.771833
-0.551748
-0.331146
-0.110397
61.9399
61.9412
61.9506
61.9693
61.9973
62.0349
62.0865
62.1441
62.2332
62.304
62.4102
62.4911
62.5708
-2.08757
-1.9707
-1.99896
-1.71878
-1.63346
-1.40089
-1.20448
-0.99153
-0.773337
-0.55283
-0.331799
-0.110616
61.9456
61.9419
61.9504
61.969
61.9968
62.0345
62.086
62.1437
62.2331
62.3046
62.4109
62.4928
62.5735
-2.08998
-1.9731
-2.00066
-1.72051
-1.63501
-1.40219
-1.20565
-0.992509
-0.774101
-0.55338
-0.332131
-0.110726
61.9923
61.9915
62.0044
62.0277
62.0598
62.0985
62.1484
62.1854
62.2593
62.2747
62.3594
62.3721
62.411
-1.88559
-1.77341
-1.80212
-1.53884
-1.46183
-1.25044
-1.07169
-0.879957
-0.684835
-0.48862
-0.292767
-0.0974214
61.9857
61.9898
62.0038
62.0271
62.0593
62.0981
62.1481
62.1854
62.2592
62.2763
62.356
62.3715
62.412
-1.88643
-1.77459
-1.80396
-1.54027
-1.46324
-1.25171
-1.07273
-0.880819
-0.685508
-0.4891
-0.293053
-0.0975172
61.9835
61.9882
62.0025
62.026
62.0582
62.0971
62.1471
62.1848
62.2586
62.2772
62.356
62.372
62.4137
-1.88945
-1.77822
-1.80761
-1.54343
-1.46618
-1.25424
-1.07488
-0.88258
-0.686878
-0.490078
-0.29364
-0.0977127
61.9797
61.9858
62.0006
62.0242
62.0565
62.0954
62.1455
62.1838
62.2576
62.278
62.3553
62.3731
62.4156
-1.89452
-1.78351
-1.81303
-1.54812
-1.47055
-1.258
-1.07809
-0.885214
-0.688928
-0.491542
-0.294518
-0.0980055
61.9764
61.9832
61.9982
62.0218
62.0542
62.0932
62.1433
62.1823
62.2562
62.2786
62.3549
62.3744
62.4176
-1.9015
-1.79069
-1.82015
-1.55435
-1.47633
-1.26295
-1.08232
-0.888688
-0.691633
-0.493474
-0.295678
-0.0983923
61.9731
61.9802
61.9954
62.019
62.0513
62.0904
62.1406
62.1804
62.2544
62.2791
62.3544
62.376
62.4197
-1.91025
-1.79946
-1.82884
-1.56199
-1.48341
-1.26903
-1.08753
-0.892959
-0.694959
-0.495851
-0.297105
-0.0988685
61.9697
61.9769
61.9922
62.0158
62.048
62.0871
62.1373
62.178
62.2522
62.2792
62.3538
62.3777
62.422
-1.92061
-1.8098
-1.83899
-1.57095
-1.49171
-1.27615
-1.09363
-0.897973
-0.698865
-0.498643
-0.298782
-0.0994282
61.9662
61.9735
61.9887
62.0121
62.0442
62.0834
62.1335
62.1751
62.2496
62.279
62.353
62.3795
62.4244
-1.93242
-1.82145
-1.85043
-1.58109
-1.5011
-1.28423
-1.10055
-0.903663
-0.703299
-0.501814
-0.300687
-0.100064
61.9625
61.9698
61.9849
62.0082
62.0401
62.0792
62.1292
62.1717
62.2465
62.2783
62.3518
62.3814
62.4268
-1.94547
-1.83428
-1.863
-1.59226
-1.51144
-1.29313
-1.1082
-0.909951
-0.708203
-0.505322
-0.302795
-0.100768
61.9589
61.966
61.9809
62.004
62.0356
62.0745
62.1245
62.1678
62.243
62.2771
62.3502
62.3829
62.4292
-1.95953
-1.84805
-1.87649
-1.60429
-1.52259
-1.30275
-1.11646
-0.91675
-0.713508
-0.509119
-0.305077
-0.101531
61.9551
61.9622
61.9768
61.9995
62.0309
62.0696
62.1194
62.1634
62.239
62.2754
62.3481
62.3841
62.4314
-1.97438
-1.86255
-1.8907
-1.61698
-1.53437
-1.31292
-1.12521
-0.92396
-0.719137
-0.513149
-0.307501
-0.102341
61.9514
61.9583
61.9727
61.995
62.0259
62.0644
62.114
62.1587
62.2347
62.273
62.3456
62.3849
62.4334
-1.98977
-1.87754
-1.90538
-1.63015
-1.5466
-1.3235
-1.13432
-0.931474
-0.725008
-0.517355
-0.310031
-0.103187
61.9478
61.9545
61.9685
61.9904
62.0209
62.059
62.1083
62.1536
62.23
62.2701
62.3428
62.3853
62.4352
-2.00544
-1.89277
-1.92032
-1.64357
-1.5591
-1.33432
-1.14365
-0.939177
-0.731031
-0.521671
-0.312629
-0.104055
61.9443
61.9507
61.9644
61.9859
62.0159
62.0536
62.1025
62.1482
62.2251
62.2668
62.3398
62.3854
62.4369
-2.02114
-1.90799
-1.93526
-1.65703
-1.57164
-1.34521
-1.15305
-0.946947
-0.73711
-0.52603
-0.315253
-0.104933
61.9409
61.9472
61.9605
61.9814
62.0109
62.0481
62.0966
62.1428
62.2201
62.2631
62.3368
62.3855
62.4388
-2.03662
-1.92296
-1.94997
-1.67032
-1.58405
-1.35599
-1.16237
-0.954657
-0.743148
-0.530362
-0.317862
-0.105806
61.9378
61.9438
61.9567
61.9772
62.006
62.0428
62.0909
62.1374
62.2151
62.2593
62.3339
62.3856
62.441
-2.05162
-1.93743
-1.9642
-1.68321
-1.5961
-1.36648
-1.17146
-0.962181
-0.749044
-0.534594
-0.320412
-0.10666
61.935
61.9407
61.9532
61.9731
62.0014
62.0376
62.0853
62.1321
62.2102
62.2555
62.3312
62.3859
62.4436
-2.06591
-1.95119
-1.97772
-1.6955
-1.60761
-1.37652
-1.18016
-0.969392
-0.754698
-0.538656
-0.32286
-0.10748
61.9325
61.938
61.95
61.9694
61.9971
62.0328
62.08
62.1271
62.2055
62.2519
62.3289
62.3865
62.4465
-2.07927
-1.96401
-1.99032
-1.70699
-1.61838
-1.38592
-1.18832
-0.976165
-0.760013
-0.542475
-0.325163
-0.108252
61.9305
61.9357
61.9472
61.9661
61.9932
62.0284
62.0752
62.1225
62.2012
62.2485
62.3269
62.3871
62.4495
-2.09151
-1.97571
-2.0018
-1.7175
-1.62823
-1.39454
-1.19581
-0.982384
-0.764897
-0.545986
-0.327281
-0.108962
61.929
61.9338
61.9448
61.9631
61.9898
62.0245
62.0709
62.1183
62.1973
62.2454
62.3251
62.3877
62.4524
-2.10243
-1.98608
-2.01197
-1.72684
-1.637
-1.40222
-1.20249
-0.987937
-0.769261
-0.549125
-0.329175
-0.109597
61.9281
61.9324
61.9428
61.9607
61.9868
62.0211
62.0671
62.1147
62.1939
62.2426
62.3234
62.3879
62.4547
-2.11189
-1.99504
-2.02069
-1.73489
-1.64454
-1.40883
-1.20825
-0.992729
-0.773028
-0.551835
-0.330811
-0.110146
61.9277
61.9314
61.9412
61.9587
61.9844
62.0183
62.0641
62.1118
62.1911
62.2402
62.3216
62.3877
62.4561
-2.11976
-2.00238
-2.0278
-1.74148
-1.65072
-1.41426
-1.21298
-0.996672
-0.776129
-0.554067
-0.332158
-0.110598
61.9292
61.9311
61.9401
61.9572
61.9826
62.0162
62.0617
62.1095
62.1888
62.2382
62.3199
62.3869
62.4566
-2.12594
-2.00813
-2.03322
-1.74657
-1.65547
-1.41842
-1.21661
-0.999696
-0.778508
-0.55578
-0.333192
-0.110944
61.9291
61.9306
61.9393
61.9562
61.9814
62.0148
62.0601
62.1079
62.1871
62.2369
62.318
62.3858
62.4561
-2.13034
-2.01192
-2.03686
-1.75001
-1.65867
-1.42122
-1.21907
-1.00175
-0.78012
-0.556941
-0.333893
-0.111179
61.9349
61.9314
61.9391
61.9558
61.9809
62.0142
62.0594
62.1072
62.1862
62.2366
62.3167
62.3812
62.4551
-2.13287
-2.01442
-2.03867
-1.75185
-1.66033
-1.4226
-1.22032
-1.0028
-0.780939
-0.55753
-0.334249
-0.111298
61.981
61.9804
61.9933
62.0162
62.0479
62.0861
62.1354
62.1724
62.2456
62.2624
62.3456
62.3603
62.3997
-1.92123
-1.80628
-1.83045
-1.56117
-1.47762
-1.26216
-1.07827
-0.883287
-0.685968
-0.488517
-0.292228
-0.0970645
61.9744
61.9788
61.9926
62.0156
62.0473
62.0856
62.135
62.1723
62.2453
62.2639
62.3421
62.3597
62.4007
-1.92217
-1.8076
-1.83244
-1.56272
-1.47914
-1.26351
-1.07938
-0.884203
-0.68668
-0.489023
-0.29253
-0.0971649
61.9721
61.9772
61.9913
62.0144
62.0461
62.0844
62.1338
62.1715
62.2445
62.2645
62.3418
62.3599
62.4022
-1.92549
-1.81155
-1.83639
-1.56612
-1.48228
-1.26621
-1.08167
-0.886073
-0.688133
-0.490059
-0.29315
-0.0973712
61.9683
61.9747
61.9894
62.0125
62.0443
62.0826
62.132
62.1702
62.2432
62.2649
62.3406
62.3605
62.4036
-1.93101
-1.81731
-1.84226
-1.57117
-1.48698
-1.27023
-1.08509
-0.888872
-0.690308
-0.49161
-0.294079
-0.0976809
61.965
61.972
61.9869
62.0101
62.0418
62.0802
62.1295
62.1683
62.2413
62.2649
62.3393
62.3611
62.405
-1.93859
-1.82509
-1.84996
-1.57789
-1.49318
-1.27553
-1.08961
-0.892568
-0.693179
-0.493659
-0.295309
-0.0980907
61.9617
61.9689
61.984
62.0071
62.0388
62.0771
62.1264
62.1659
62.2389
62.2645
62.3378
62.3618
62.4062
-1.94809
-1.83461
-1.85937
-1.58611
-1.50078
-1.28204
-1.09516
-0.897116
-0.696716
-0.496183
-0.296823
-0.0985959
61.9582
61.9656
61.9807
62.0037
62.0352
62.0735
62.1226
62.1627
62.2358
62.2634
62.3358
62.3622
62.4071
-1.95933
-1.84582
-1.87037
-1.59577
-1.5097
-1.28968
-1.10169
-0.902462
-0.700873
-0.499152
-0.298605
-0.0991905
61.9547
61.9621
61.9771
61.9999
62.0312
62.0693
62.1182
62.159
62.2321
62.2617
62.333
62.3623
62.4076
-1.97213
-1.85845
-1.88277
-1.60671
-1.5198
-1.29834
-1.10909
-0.908536
-0.705601
-0.502529
-0.300633
-0.0998673
61.951
61.9583
61.9732
61.9958
62.0267
62.0646
62.1133
62.1545
62.2277
62.2591
62.3294
62.3616
62.4075
-1.98627
-1.87236
-1.89639
-1.61876
-1.53094
-1.30791
-1.11728
-0.91526
-0.710837
-0.506271
-0.302881
-0.100618
61.9472
61.9545
61.9691
61.9913
62.0219
62.0595
62.1077
62.1494
62.2226
62.2555
62.3245
62.3597
62.4063
-2.0015
-1.88729
-1.91103
-1.63174
-1.54295
-1.31825
-1.12615
-0.922541
-0.71651
-0.510327
-0.305318
-0.101432
61.9435
61.9505
61.9648
61.9867
62.0168
62.0539
62.1017
62.1435
62.2168
62.2507
62.3184
62.3564
62.4037
-2.01757
-1.903
-1.92643
-1.64546
-1.55567