/*--------------------------------*- C++ -*----------------------------------*\
| =========                 |                                                 |
| \\      /  F ield         | OpenFOAM: The Open Source CFD Toolbox           |
|  \\    /   O peration     | Version:  2306                                  |
|   \\  /    A nd           | Website:  www.openfoam.com                      |
|    \\/     M anipulation  |                                                 |
\*---------------------------------------------------------------------------*/
FoamFile
{
    version     2.0;
    format      ascii;
    arch        "LSB;label=32;scalar=64";
    class       volScalarField;
    location    "4.2";
    object      p;
}
// * * * * * * * * * * * * * * * * * * * * * * * * * * * * * * * * * * * * * //

dimensions      [0 2 -2 0 0 0 0];

internalField   nonuniform List<scalar> 
288632
(
64.9578
64.9495
64.9616
64.9862
65.0201
65.0606
65.1135
65.1534
65.2246
65.2461
65.3264
65.3407
65.3731
-2.20913
-2.08587
-2.09294
-1.82211
-1.72486
-1.48386
-1.28134
-1.05787
-0.826815
-0.592166
-0.3559
-0.118811
64.9509
64.9481
64.9611
64.9858
65.0198
65.0604
65.1135
65.1536
65.2249
65.247
65.3267
65.3407
65.3738
-2.20984
-2.08674
-2.09443
-1.82328
-1.72603
-1.48494
-1.28225
-1.05862
-0.827409
-0.592594
-0.356158
-0.118898
64.9489
64.9467
64.9601
64.9849
65.019
65.0598
65.113
65.1537
65.2252
65.2486
65.328
65.3421
65.376
-2.21229
-2.08969
-2.09742
-1.82589
-1.72851
-1.4871
-1.28411
-1.06016
-0.828626
-0.593469
-0.356685
-0.119075
64.9453
64.9445
64.9585
64.9834
65.0178
65.0589
65.1123
65.1538
65.2255
65.2506
65.3295
65.3448
65.379
-2.21639
-2.09394
-2.10186
-1.82977
-1.73221
-1.49031
-1.2869
-1.06248
-0.830445
-0.594778
-0.357474
-0.119339
64.9424
64.9422
64.9565
64.9816
65.0162
65.0576
65.1113
65.1537
65.226
65.2531
65.3316
65.3483
65.3829
-2.22206
-2.09972
-2.10768
-1.83493
-1.7371
-1.49452
-1.29057
-1.06553
-0.832842
-0.596503
-0.358515
-0.119687
64.9395
64.9396
64.9541
64.9795
65.0143
65.056
65.11
65.1536
65.2265
65.2561
65.3344
65.3526
65.3876
-2.22916
-2.10678
-2.11478
-1.84124
-1.74307
-1.49968
-1.29507
-1.06927
-0.835785
-0.598621
-0.359793
-0.120115
64.9365
64.9369
64.9515
64.977
65.012
65.0541
65.1085
65.1534
65.2272
65.2595
65.3379
65.3579
65.3934
-2.23756
-2.11509
-2.12306
-1.84863
-1.75006
-1.50572
-1.30033
-1.07366
-0.839231
-0.601103
-0.36129
-0.120617
64.9335
64.934
64.9487
64.9743
65.0094
65.052
65.1067
65.1532
65.2279
65.2634
65.3422
65.3642
65.4003
-2.24712
-2.12445
-2.13237
-1.85697
-1.75795
-1.51255
-1.30629
-1.07861
-0.843133
-0.603913
-0.362987
-0.121186
64.9304
64.931
64.9457
64.9714
65.0066
65.0496
65.1049
65.153
65.2289
65.2679
65.3472
65.3717
65.4084
-2.25767
-2.13473
-2.14257
-1.86614
-1.76661
-1.52005
-1.31284
-1.08408
-0.847434
-0.607012
-0.364858
-0.121813
64.9273
64.9279
64.9426
64.9682
65.0037
65.0471
65.1029
65.1527
65.23
65.2727
65.3533
65.3802
65.4179
-2.26902
-2.14576
-2.15351
-1.87599
-1.77591
-1.52813
-1.3199
-1.08996
-0.852071
-0.610355
-0.366878
-0.12249
64.9242
64.9247
64.9394
64.965
65.0006
65.0444
65.1008
65.1525
65.2314
65.2781
65.3604
65.3901
65.4288
-2.281
-2.15735
-2.16499
-1.88635
-1.78572
-1.53665
-1.32735
-1.09618
-0.856974
-0.613892
-0.369015
-0.123207
64.9212
64.9216
64.9362
64.9618
64.9974
65.0416
65.0987
65.1524
65.233
65.2842
65.3685
65.4013
65.4414
-2.29339
-2.1693
-2.17683
-1.89707
-1.79587
-1.54548
-1.33509
-1.10264
-0.86207
-0.61757
-0.371238
-0.123953
64.9182
64.9185
64.9329
64.9585
64.9942
65.0389
65.0966
65.1524
65.235
65.2908
65.3778
65.414
65.4557
-2.30599
-2.18143
-2.18885
-1.90798
-1.8062
-1.55448
-1.34298
-1.10924
-0.867279
-0.621331
-0.373512
-0.124717
64.9153
64.9156
64.9298
64.9552
64.991
65.0361
65.0946
65.1525
65.2372
65.2981
65.3883
65.4281
65.4717
-2.31861
-2.19354
-2.20085
-1.91889
-1.81655
-1.56351
-1.3509
-1.11587
-0.872518
-0.625116
-0.375802
-0.125486
64.9126
64.9127
64.9268
64.9521
64.9879
65.0334
65.0927
65.1528
65.2398
65.3058
65.4
65.4436
65.4895
-2.33103
-2.20543
-2.21264
-1.92963
-1.82674
-1.57242
-1.35873
-1.12243
-0.877704
-0.628864
-0.37807
-0.126248
64.9101
64.9101
64.924
64.9492
64.9849
65.0308
65.0909
65.1532
65.2427
65.3141
65.4127
65.4604
65.5087
-2.34307
-2.21692
-2.22403
-1.94003
-1.83663
-1.58107
-1.36634
-1.12882
-0.882753
-0.632515
-0.38028
-0.12699
64.9079
64.9077
64.9214
64.9464
64.9822
65.0283
65.0893
65.1539
65.2458
65.3226
65.4262
65.4781
65.5293
-2.35453
-2.22783
-2.23484
-1.94994
-1.84604
-1.58933
-1.37361
-1.13491
-0.887579
-0.636008
-0.382396
-0.127702
64.9061
64.9057
64.9191
64.9439
64.9796
65.0261
65.0879
65.1547
65.249
65.3312
65.4401
65.4963
65.5507
-2.36524
-2.238
-2.24489
-1.95918
-1.85483
-1.59704
-1.38041
-1.14062
-0.892104
-0.639283
-0.38438
-0.128369
64.9046
64.9039
64.917
64.9417
64.9773
65.0242
65.0868
65.1556
65.2523
65.3397
65.4541
65.5146
65.5724
-2.37504
-2.24727
-2.25405
-1.96761
-1.86286
-1.6041
-1.38663
-1.14585
-0.896251
-0.642287
-0.3862
-0.128981
64.9036
64.9025
64.9153
64.9397
64.9754
65.0225
65.0858
65.1566
65.2556
65.3477
65.4675
65.5324
65.5936
-2.3838
-2.25549
-2.26215
-1.97511
-1.86999
-1.61038
-1.39217
-1.15052
-0.899948
-0.644966
-0.387825
-0.129528
64.9031
64.9016
64.9139
64.9381
64.9737
65.021
65.085
65.1575
65.2585
65.355
65.4799
65.5489
65.6135
-2.39138
-2.26259
-2.2691
-1.98156
-1.87612
-1.61578
-1.39694
-1.15453
-0.903134
-0.647275
-0.389225
-0.129999
64.9029
64.9009
64.9129
64.9368
64.9724
65.0199
65.0843
65.1584
65.2612
65.3613
65.4906
65.5633
65.6311
-2.39769
-2.26841
-2.27476
-1.98685
-1.88114
-1.6202
-1.40086
-1.15783
-0.905752
-0.649174
-0.390376
-0.130386
64.9051
64.9009
64.9121
64.9359
64.9714
65.0191
65.0839
65.1591
65.2633
65.3662
65.4991
65.5752
65.6456
-2.40264
-2.27299
-2.27908
-1.99093
-1.88499
-1.62358
-1.40386
-1.16035
-0.907759
-0.650628
-0.391258
-0.130683
64.9048
64.9005
64.9116
64.9353
64.9707
65.0185
65.0836
65.1596
65.2647
65.3697
65.5049
65.5838
65.6562
-2.40617
-2.27597
-2.28198
-1.99368
-1.8876
-1.62586
-1.40589
-1.16207
-0.909117
-0.651613
-0.391855
-0.130883
64.911
64.9013
64.9115
64.9351
64.9705
65.0183
65.0835
65.16
65.2656
65.3716
65.5082
65.5879
65.6625
-2.40817
-2.27803
-2.28343
-1.99517
-1.88896
-1.62699
-1.40693
-1.16294
-0.909808
-0.652113
-0.392158
-0.130984
64.9492
64.9462
64.9592
64.9838
65.0177
65.0581
65.111
65.1509
65.2219
65.2438
65.3234
65.3381
65.3717
-2.21579
-2.09327
-2.10005
-1.82769
-1.72913
-1.48726
-1.28349
-1.05915
-0.827514
-0.592479
-0.356
-0.118815
64.9424
64.9445
64.9587
64.9834
65.0174
65.0579
65.1109
65.1512
65.2221
65.2455
65.3217
65.3381
65.3728
-2.21646
-2.09417
-2.10158
-1.82889
-1.73032
-1.48836
-1.28441
-1.05991
-0.828118
-0.592914
-0.356262
-0.118904
64.9404
64.9432
64.9577
64.9824
65.0166
65.0573
65.1105
65.1512
65.2224
65.2471
65.3225
65.3395
65.375
-2.21894
-2.09718
-2.10463
-1.83155
-1.73285
-1.49056
-1.2863
-1.06148
-0.829353
-0.593802
-0.356798
-0.119083
64.9371
64.9409
64.956
64.981
65.0153
65.0563
65.1097
65.1512
65.2227
65.2492
65.3237
65.342
65.3781
-2.22311
-2.10151
-2.10915
-1.8355
-1.73661
-1.49382
-1.28913
-1.06383
-0.831199
-0.59513
-0.357598
-0.119352
64.9343
64.9385
64.954
64.9792
65.0137
65.055
65.1086
65.1511
65.223
65.2516
65.3256
65.3454
65.3819
-2.22886
-2.1074
-2.11508
-1.84074
-1.74158
-1.4981
-1.29286
-1.06693
-0.833632
-0.596881
-0.358654
-0.119705
64.9313
64.9361
64.9516
64.977
65.0117
65.0534
65.1072
65.1509
65.2234
65.2544
65.3283
65.3498
65.3866
-2.23605
-2.11459
-2.12231
-1.84716
-1.74765
-1.50335
-1.29743
-1.07073
-0.836619
-0.59903
-0.359951
-0.12014
64.9282
64.9334
64.949
64.9745
65.0094
65.0514
65.1056
65.1505
65.2239
65.2577
65.3316
65.3551
65.3924
-2.24457
-2.12305
-2.13074
-1.85468
-1.75476
-1.50949
-1.30278
-1.07518
-0.840119
-0.60155
-0.361472
-0.120649
64.9251
64.9305
64.9461
64.9717
65.0068
65.0492
65.1038
65.1502
65.2245
65.2613
65.3356
65.3613
65.3992
-2.25427
-2.13257
-2.14022
-1.86317
-1.76278
-1.51643
-1.30883
-1.08022
-0.844082
-0.604404
-0.363194
-0.121227
64.9221
64.9275
64.9431
64.9687
65.0039
65.0467
65.1018
65.1497
65.2252
65.2653
65.3404
65.3685
65.4072
-2.26496
-2.14304
-2.15062
-1.8725
-1.7716
-1.52407
-1.3155
-1.08577
-0.848453
-0.607553
-0.365096
-0.121864
64.9189
64.9244
64.94
64.9655
65.0009
65.0441
65.0996
65.1492
65.2261
65.2698
65.3461
65.3768
65.4165
-2.27648
-2.15426
-2.16175
-1.88252
-1.78107
-1.53228
-1.32268
-1.09176
-0.853166
-0.610951
-0.367148
-0.122552
64.9158
64.9212
64.9367
64.9623
64.9977
65.0413
65.0973
65.1487
65.2271
65.2747
65.3526
65.3864
65.4272
-2.28862
-2.16605
-2.17344
-1.89307
-1.79104
-1.54095
-1.33026
-1.09808
-0.858152
-0.614547
-0.369321
-0.123281
64.9128
64.9181
64.9335
64.9589
64.9944
65.0384
65.095
65.1483
65.2284
65.2802
65.3602
65.3972
65.4394
-2.30117
-2.17822
-2.18551
-1.90398
-1.80138
-1.54994
-1.33812
-1.10465
-0.863335
-0.618287
-0.371582
-0.12404
64.9098
64.915
64.9302
64.9556
64.9911
65.0354
65.0927
65.1479
65.23
65.2862
65.3688
65.4095
65.4533
-2.31394
-2.19055
-2.19774
-1.91508
-1.81189
-1.5591
-1.34616
-1.11137
-0.868635
-0.622113
-0.373895
-0.124817
64.9069
64.912
64.9271
64.9523
64.9878
65.0325
65.0905
65.1477
65.2318
65.2927
65.3785
65.4231
65.4689
-2.32672
-2.20286
-2.20996
-1.92618
-1.82243
-1.56829
-1.35422
-1.11812
-0.873968
-0.625965
-0.376226
-0.1256
64.9042
64.9091
64.924
64.9491
64.9846
65.0296
65.0883
65.1476
65.2339
65.2997
65.3892
65.4381
65.4863
-2.3393
-2.21495
-2.22196
-1.93712
-1.83281
-1.57737
-1.3622
-1.1248
-0.879248
-0.629781
-0.378535
-0.126376
64.9017
64.9065
64.9212
64.9461
64.9815
65.0268
65.0863
65.1477
65.2363
65.3071
65.401
65.4542
65.5051
-2.35148
-2.22663
-2.23355
-1.94771
-1.84288
-1.58618
-1.36995
-1.1313
-0.884389
-0.633499
-0.380786
-0.127132
64.8994
64.9041
64.9185
64.9433
64.9786
65.0242
65.0844
65.1479
65.2389
65.3147
65.4135
65.4714
65.5253
-2.36308
-2.23772
-2.24455
-1.95778
-1.85247
-1.59458
-1.37735
-1.13751
-0.889306
-0.637057
-0.382941
-0.127857
64.8975
64.902
64.9162
64.9407
64.976
65.0219
65.0828
65.1483
65.2416
65.3224
65.4264
65.4891
65.5463
-2.37392
-2.24804
-2.25478
-1.96718
-1.86142
-1.60244
-1.38427
-1.14333
-0.893917
-0.640395
-0.384964
-0.128537
64.8961
64.9003
64.9141
64.9384
64.9736
65.0197
65.0814
65.1488
65.2444
65.33
65.4393
65.5069
65.5676
-2.38383
-2.25745
-2.26409
-1.97577
-1.86959
-1.60963
-1.39061
-1.14866
-0.898143
-0.643456
-0.386819
-0.129161
64.895
64.8989
64.9124
64.9364
64.9715
65.0179
65.0801
65.1494
65.2472
65.3372
65.4518
65.5241
65.5885
-2.39268
-2.2658
-2.27233
-1.98339
-1.87686
-1.61603
-1.39626
-1.15341
-0.901912
-0.646187
-0.388475
-0.129719
64.8946
64.8979
64.9109
64.9348
64.9698
65.0163
65.0791
65.15
65.2498
65.3437
65.4633
65.5401
65.608
-2.40034
-2.273
-2.27939
-1.98996
-1.8831
-1.62153
-1.40112
-1.1575
-0.90516
-0.648542
-0.389903
-0.130199
64.8944
64.8972
64.9098
64.9335
64.9684
65.0151
65.0783
65.1506
65.252
65.3493
65.4733
65.5542
65.6253
-2.40672
-2.2789
-2.28515
-1.99533
-1.88821
-1.62603
-1.40511
-1.16087
-0.90783
-0.650477
-0.391077
-0.130594
64.8965
64.8972
64.9091
64.9325
64.9674
65.0142
65.0778
65.1511
65.2539
65.3537
65.4812
65.5657
65.6396
-2.41173
-2.28354
-2.28953
-1.99948
-1.89213
-1.62948
-1.40817
-1.16344
-0.909875
-0.651961
-0.391977
-0.130897
64.8962
64.8968
64.9085
64.9319
64.9667
65.0135
65.0774
65.1515
65.2551
65.3568
65.4863
65.5738
65.6499
-2.41528
-2.28657
-2.29248
-2.00228
-1.89478
-1.6318
-1.41024
-1.16519
-0.91126
-0.652965
-0.392586
-0.131102
64.9023
64.8976
64.9084
64.9317
64.9664
65.0133
65.0773
65.1517
65.2559
65.3586
65.4896
65.5763
65.6558
-2.41731
-2.28864
-2.29394
-2.00378
-1.89617
-1.63294
-1.4113
-1.16608
-0.911963
-0.653474
-0.392893
-0.131204
64.9435
64.941
64.9543
64.9788
65.0126
65.0529
65.1055
65.1455
65.2163
65.2389
65.3178
65.3333
65.3681
-2.23105
-2.10897
-2.11399
-1.8387
-1.73735
-1.4936
-1.28742
-1.06139
-0.828636
-0.592892
-0.356052
-0.118762
64.9369
64.9393
64.9538
64.9783
65.0123
65.0527
65.1054
65.1458
65.2164
65.2407
65.3157
65.3333
65.3692
-2.23175
-2.10991
-2.11557
-1.83994
-1.73859
-1.49474
-1.28837
-1.06217
-0.829257
-0.593339
-0.356321
-0.118853
64.9349
64.9379
64.9527
64.9774
65.0114
65.052
65.1049
65.1457
65.2166
65.2422
65.3166
65.3346
65.3715
-2.23432
-2.11303
-2.11873
-1.84269
-1.7412
-1.497
-1.29032
-1.06379
-0.830528
-0.594252
-0.356871
-0.119037
64.9313
64.9357
64.951
64.9759
65.0101
65.051
65.104
65.1456
65.2168
65.2441
65.3177
65.337
65.3745
-2.23863
-2.11753
-2.12342
-1.84678
-1.74508
-1.50037
-1.29324
-1.06621
-0.832428
-0.595618
-0.357695
-0.119313
64.9283
64.9335
64.949
64.9741
65.0084
65.0495
65.1028
65.1453
65.2169
65.2463
65.3195
65.3402
65.3782
-2.24458
-2.12364
-2.12957
-1.85221
-1.75022
-1.50479
-1.29708
-1.0694
-0.834933
-0.59742
-0.358781
-0.119677
64.9252
64.9309
64.9466
64.9718
65.0064
65.0478
65.1013
65.1448
65.2171
65.2488
65.3217
65.3442
65.3827
-2.25201
-2.1311
-2.13706
-1.85885
-1.7565
-1.51021
-1.3018
-1.07332
-0.838011
-0.599634
-0.360117
-0.120124
64.9222
64.9282
64.944
64.9693
65.0039
65.0457
65.0995
65.1443
65.2172
65.2517
65.3246
65.3491
65.3881
-2.26082
-2.13987
-2.14581
-1.86664
-1.76385
-1.51656
-1.30732
-1.07791
-0.841618
-0.60223
-0.361683
-0.120649
64.9191
64.9252
64.9411
64.9664
65.0012
65.0433
65.0974
65.1435
65.2174
65.2548
65.3279
65.3548
65.3944
-2.27083
-2.14975
-2.15565
-1.87542
-1.77215
-1.52373
-1.31357
-1.08311
-0.845706
-0.605173
-0.363459
-0.121245
64.916
64.9222
64.938
64.9633
64.9982
65.0406
65.0951
65.1427
65.2177
65.2582
65.332
65.3614
65.4018
-2.28187
-2.1606
-2.16643
-1.88508
-1.78127
-1.53162
-1.32045
-1.08884
-0.850216
-0.608422
-0.365421
-0.121902
64.9129
64.919
64.9348
64.9601
64.995
65.0377
65.0926
65.1417
65.2179
65.2618
65.3366
65.3688
65.4103
-2.29375
-2.17223
-2.17797
-1.89545
-1.79108
-1.54012
-1.32787
-1.09503
-0.855084
-0.611929
-0.367539
-0.122613
64.9097
64.9158
64.9315
64.9567
64.9916
65.0347
65.09
65.1407
65.2183
65.2658
65.342
65.3772
65.42
-2.30627
-2.18444
-2.19009
-1.90638
-1.80141
-1.54909
-1.33571
-1.10157
-0.860237
-0.615645
-0.369784
-0.123366
64.9066
64.9126
64.9281
64.9533
64.9882
65.0315
65.0873
65.1396
65.2188
65.2701
65.3481
65.3866
65.431
-2.31922
-2.19703
-2.2026
-1.91768
-1.81212
-1.5584
-1.34385
-1.10837
-0.865598
-0.619512
-0.372122
-0.124151
64.9036
64.9095
64.9248
64.9498
64.9847
65.0282
65.0845
65.1385
65.2195
65.2748
65.3551
65.3971
65.4434
-2.33238
-2.2098
-2.21528
-1.92917
-1.82301
-1.56789
-1.35217
-1.11532
-0.871083
-0.623471
-0.374516
-0.124955
64.9006
64.9064
64.9216
64.9464
64.9812
65.025
65.0818
65.1375
65.2203
65.2798
65.363
65.4088
65.4573
-2.34553
-2.22253
-2.22794
-1.94066
-1.83393
-1.57742
-1.36053
-1.12231
-0.876605
-0.62746
-0.376929
-0.125766
64.8979
64.9035
64.9185
64.9431
64.9778
65.0217
65.0791
65.1366
65.2214
65.2851
65.3717
65.4215
65.4727
-2.35848
-2.23504
-2.24037
-1.95199
-1.8447
-1.58683
-1.36879
-1.12924
-0.882077
-0.631414
-0.379323
-0.12657
64.8954
64.9009
64.9155
64.9399
64.9745
65.0186
65.0765
65.1358
65.2227
65.2907
65.3812
65.4353
65.4894
-2.37101
-2.2471
-2.25237
-1.96295
-1.85514
-1.59597
-1.37683
-1.13598
-0.887408
-0.635269
-0.381657
-0.127355
64.8931
64.8984
64.9128
64.937
64.9714
65.0157
65.0742
65.1351
65.2242
65.2966
65.3914
65.4499
65.5074
-2.38293
-2.25855
-2.26376
-1.97338
-1.86508
-1.60468
-1.38451
-1.14242
-0.89251
-0.63896
-0.383893
-0.128107
64.8912
64.8963
64.9104
64.9343
64.9685
65.013
65.072
65.1347
65.2258
65.3025
65.402
65.465
65.5261
-2.39406
-2.26921
-2.27435
-1.98311
-1.87437
-1.61284
-1.3917
-1.14846
-0.897295
-0.642425
-0.385992
-0.128813
64.8897
64.8945
64.9083
64.9318
64.966
65.0105
65.07
65.1344
65.2275
65.3083
65.4127
65.4801
65.5451
-2.40423
-2.27892
-2.28398
-1.992
-1.88284
-1.6203
-1.39828
-1.154
-0.901684
-0.645604
-0.387919
-0.129462
64.8886
64.8931
64.9065
64.9298
64.9637
65.0084
65.0683
65.1342
65.2293
65.3138
65.423
65.4948
65.5637
-2.4133
-2.28753
-2.2925
-1.99988
-1.89037
-1.62693
-1.40414
-1.15893
-0.9056
-0.648441
-0.38964
-0.130041
64.8881
64.8921
64.905
64.928
64.9618
65.0066
65.0669
65.1341
65.2309
65.3188
65.4324
65.5083
65.581
-2.42116
-2.29495
-2.2998
-2.00667
-1.89685
-1.63264
-1.40919
-1.16319
-0.908974
-0.650888
-0.391124
-0.130541
64.8879
64.8914
64.9038
64.9266
64.9603
65.0051
65.0658
65.1342
65.2324
65.3231
65.4406
65.5202
65.5964
-2.42769
-2.30103
-2.30575
-2.01224
-1.90215
-1.63732
-1.41333
-1.16668
-0.911749
-0.6529
-0.392345
-0.130952
64.89
64.8913
64.9031
64.9256
64.9592
65.004
65.065
65.1342
65.2336
65.3265
65.447
65.5299
65.6091
-2.43281
-2.3058
-2.31028
-2.01652
-1.90621
-1.64089
-1.41651
-1.16936
-0.913876
-0.654443
-0.393281
-0.131267
64.8897
64.8909
64.9025
64.9249
64.9584
65.0033
65.0644
65.1342
65.2344
65.3289
65.451
65.537
65.6182
-2.43645
-2.30891
-2.31332
-2.01941
-1.90897
-1.6433
-1.41865
-1.17117
-0.915316
-0.655487
-0.393914
-0.13148
64.8958
64.8918
64.9023
64.9247
64.9581
65.003
65.0642
65.1343
65.235
65.3304
65.4535
65.541
65.6232
-2.43852
-2.31104
-2.31484
-2.02096
-1.9104
-1.64448
-1.41975
-1.1721
-0.916046
-0.656016
-0.394234
-0.131587
64.9346
64.9333
64.9469
64.9713
65.0049
65.0449
65.0972
65.1373
65.2077
65.2313
65.309
65.3263
65.3616
-2.25544
-2.13235
-2.13476
-1.8551
-1.74953
-1.50288
-1.2931
-1.06455
-0.830142
-0.593368
-0.356031
-0.118643
64.928
64.9316
64.9463
64.9708
65.0046
65.0447
65.0971
65.1375
65.2078
65.2331
65.3066
65.3262
65.3628
-2.2562
-2.13338
-2.13642
-1.85641
-1.75083
-1.50408
-1.29409
-1.06537
-0.830789
-0.593833
-0.356311
-0.118737
64.9259
64.9303
64.9453
64.9699
65.0037
65.044
65.0965
65.1374
65.2078
65.2345
65.3075
65.3273
65.3651
-2.25893
-2.13667
-2.13976
-1.8593
-1.75356
-1.50645
-1.29613
-1.06705
-0.832113
-0.594784
-0.356883
-0.118929
64.9222
64.9281
64.9436
64.9684
65.0023
65.0428
65.0955
65.137
65.2078
65.2362
65.3082
65.3295
65.3679
-2.26347
-2.14143
-2.1447
-1.8636
-1.75764
-1.50997
-1.29918
-1.06958
-0.834094
-0.596208
-0.357741
-0.119216
64.9192
64.9258
64.9415
64.9664
65.0005
65.0413
65.0941
65.1365
65.2076
65.238
65.3094
65.3323
65.3713
-2.26974
-2.14788
-2.15118
-1.86931
-1.76303
-1.51461
-1.3032
-1.07291
-0.836708
-0.598086
-0.358874
-0.119596
64.9162
64.9232
64.9391
64.9641
64.9983
65.0393
65.0923
65.1357
65.2074
65.2401
65.3112
65.3359
65.3754
-2.27757
-2.15574
-2.15909
-1.87629
-1.76962
-1.52029
-1.30813
-1.07701
-0.839921
-0.600396
-0.360267
-0.120062
64.9131
64.9203
64.9364
64.9615
64.9957
65.037
65.0902
65.1347
65.2071
65.2423
65.3132
65.3401
65.3801
-2.28683
-2.16499
-2.16831
-1.88447
-1.77734
-1.52694
-1.31391
-1.08181
-0.843691
-0.603108
-0.361903
-0.12061
64.91
64.9173
64.9334
64.9585
64.9928
65.0344
65.0878
65.1335
65.2067
65.2446
65.3157
65.345
65.3856
-2.29736
-2.1754
-2.17869
-1.89371
-1.78606
-1.53447
-1.32046
-1.08725
-0.847966
-0.606184
-0.363759
-0.121233
64.9069
64.9142
64.9303
64.9553
64.9896
65.0314
65.0851
65.132
65.2062
65.247
65.3185
65.3504
65.3918
-2.30896
-2.18683
-2.19006
-1.90387
-1.79566
-1.54276
-1.32768
-1.09326
-0.852689
-0.609584
-0.365812
-0.121921
64.9037
64.911
64.927
64.9519
64.9862
65.0282
65.0821
65.1303
65.2056
65.2494
65.3216
65.3564
65.3988
-2.32144
-2.19908
-2.20223
-1.91478
-1.80597
-1.55169
-1.33547
-1.09975
-0.85779
-0.613259
-0.368031
-0.122666
64.9005
64.9077
64.9236
64.9484
64.9826
65.0247
65.0789
65.1284
65.2049
65.2518
65.3251
65.3629
65.4066
-2.33458
-2.21193
-2.21502
-1.92628
-1.81685
-1.56112
-1.34371
-1.10661
-0.863197
-0.617156
-0.370386
-0.123456
64.8974
64.9044
64.9201
64.9447
64.9789
65.0211
65.0756
65.1264
65.2042
65.2543
65.3289
65.3701
65.4152
-2.34815
-2.22518
-2.2282
-1.93816
-1.82812
-1.57091
-1.35227
-1.11376
-0.868827
-0.621216
-0.37284
-0.12428
64.8943
64.9012
64.9167
64.9411
64.9751
65.0174
65.0721
65.1242
65.2035
65.2568
65.3332
65.3778
65.4248
-2.36194
-2.2386
-2.24157
-1.95026
-1.8396
-1.58091
-1.36102
-1.12107
-0.874594
-0.625377
-0.375356
-0.125125
64.8913
64.8981
64.9133
64.9375
64.9713
65.0137
65.0687
65.122
65.2029
65.2594
65.338
65.3863
65.4353
-2.37571
-2.25198
-2.25491
-1.96236
-1.85111
-1.59094
-1.36982
-1.12843
-0.880406
-0.629575
-0.377896
-0.125978
64.8885
64.8952
64.9101
64.934
64.9676
65.01
65.0652
65.1199
65.2023
65.2621
65.3433
65.3955
65.4469
-2.38925
-2.2651
-2.268
-1.97427
-1.86246
-1.60086
-1.37853
-1.13573
-0.88617
-0.633739
-0.380417
-0.126826
64.8859
64.8924
64.9071
64.9307
64.964
65.0064
65.0619
65.1178
65.2019
65.2649
65.3492
65.4053
65.4596
-2.40234
-2.27776
-2.28064
-1.98581
-1.87346
-1.6105
-1.387
-1.14284
-0.891791
-0.637803
-0.382878
-0.127654
64.8836
64.8899
64.9043
64.9275
64.9606
65.0029
65.0587
65.1158
65.2016
65.2678
65.3555
65.4158
65.4731
-2.41477
-2.28976
-2.29262
-1.99678
-1.88395
-1.61969
-1.3951
-1.14964
-0.897174
-0.641698
-0.385237
-0.128448
64.8817
64.8877
64.9017
64.9247
64.9574
64.9997
65.0557
65.114
65.2015
65.2708
65.3621
65.4266
65.4872
-2.42637
-2.30091
-2.30375
-2.00702
-1.89374
-1.6283
-1.40269
-1.15602
-0.902228
-0.645356
-0.387455
-0.129194
64.8801
64.8859
64.8995
64.9221
64.9546
64.9968
65.053
65.1124
65.2015
65.2737
65.3688
65.4374
65.5015
-2.43695
-2.31107
-2.31387
-2.01636
-1.90268
-1.63617
-1.40964
-1.16187
-0.906865
-0.648715
-0.389492
-0.12988
64.879
64.8844
64.8976
64.9198
64.9521
64.9942
65.0506
65.1111
65.2017
65.2766
65.3753
65.4478
65.5154
-2.44639
-2.32006
-2.32282
-2.02465
-1.91063
-1.64317
-1.41583
-1.16709
-0.911005
-0.651715
-0.391312
-0.130494
64.8785
64.8833
64.8961
64.918
64.95
64.992
65.0486
65.11
65.2018
65.2791
65.3812
65.4574
65.5282
-2.45455
-2.32781
-2.33048
-2.03179
-1.91745
-1.6492
-1.42117
-1.17158
-0.914574
-0.654304
-0.392882
-0.131023
64.8782
64.8826
64.8949
64.9165
64.9482
64.9902
65.0469
65.1091
65.202
65.2813
65.3862
65.4657
65.5395
-2.46133
-2.33415
-2.33672
-2.03763
-1.92304
-1.65414
-1.42555
-1.17528
-0.91751
-0.656433
-0.394175
-0.131458
64.8802
64.8826
64.894
64.9154
64.947
64.9889
65.0457
65.1084
65.2022
65.283
65.39
65.4722
65.5485
-2.46664
-2.33912
-2.34147
-2.04212
-1.92733
-1.65791
-1.4289
-1.17811
-0.91976
-0.658066
-0.395166
-0.131792
64.88
64.8822
64.8934
64.9146
64.9461
64.988
65.0448
65.1079
65.2023
65.2842
65.3921
65.4767
65.5548
-2.47041
-2.34236
-2.34466
-2.04516
-1.93023
-1.66045
-1.43117
-1.18003
-0.921285
-0.659171
-0.395837
-0.132018
64.886
64.883
64.8932
64.9144
64.9458
64.9876
65.0444
65.1078
65.2025
65.2851
65.3931
65.4785
65.558
-2.47255
-2.34454
-2.34624
-2.04678
-1.93174
-1.66171
-1.43233
-1.18101
-0.922058
-0.659732
-0.396177
-0.132132
64.9243
64.9237
64.9373
64.9615
64.9947
65.0344
65.0861
65.1263
65.1961
65.2209
65.2975
65.3165
65.3524
-2.28894
-2.16376
-2.16246
-1.87687
-1.76556
-1.51496
-1.30035
-1.06847
-0.831892
-0.593799
-0.355869
-0.118435
64.9177
64.922
64.9367
64.961
64.9943
65.0341
65.0859
65.1264
65.1962
65.2226
65.2948
65.3163
65.3536
-2.28978
-2.1649
-2.16423
-1.87828
-1.76694
-1.51622
-1.3014
-1.06933
-0.832573
-0.594287
-0.356162
-0.118533
64.9156
64.9207
64.9356
64.9599
64.9934
65.0333
65.0852
65.1261
65.1961
65.2238
65.2955
65.3172
65.3557
-2.29272
-2.16843
-2.1678
-1.88136
-1.76985
-1.51874
-1.30355
-1.07111
-0.833968
-0.595289
-0.356764
-0.118734
64.9119
64.9184
64.9339
64.9584
64.9919
65.032
65.084
65.1255
65.1957
65.2252
65.2958
65.3191
65.3582
-2.2976
-2.17354
-2.17309
-1.88594
-1.77419
-1.52247
-1.30678
-1.07378
-0.836058
-0.596789
-0.357668
-0.119036
64.9089
64.916
64.9318
64.9564
64.99
65.0303
65.0824
65.1247
65.1952
65.2266
65.2965
65.3214
65.3612
-2.30431
-2.18045
-2.18004
-1.89202
-1.77992
-1.52739
-1.31103
-1.0773
-0.838817
-0.59877
-0.358862
-0.119436
64.9059
64.9133
64.9293
64.954
64.9876
65.0281
65.0803
65.1235
65.1945
65.2281
65.2974
65.3243
65.3646
-2.3127
-2.18888
-2.1885
-1.89947
-1.78694
-1.53343
-1.31626
-1.08164
-0.842211
-0.601209
-0.360332
-0.119929
64.9028
64.9104
64.9265
64.9512
64.9849
65.0255
65.0778
65.1219
65.1935
65.2294
65.2985
65.3277
65.3684
-2.3226
-2.19878
-2.19838
-1.90819
-1.79516
-1.5405
-1.32239
-1.08672
-0.846198
-0.604075
-0.36206
-0.120508
64.8996
64.9074
64.9234
64.9481
64.9818
65.0225
65.075
65.12
65.1923
65.2306
65.2997
65.3312
65.3727
-2.33385
-2.20992
-2.20949
-1.91805
-1.80445
-1.5485
-1.32934
-1.09249
-0.850726
-0.607331
-0.364025
-0.121167
64.8964
64.9042
64.9202
64.9447
64.9783
65.0192
65.0717
65.1177
65.1908
65.2316
65.3007
65.335
65.3772
-2.34624
-2.22214
-2.22167
-1.92888
-1.81468
-1.55733
-1.33702
-1.09887
-0.855733
-0.610934
-0.3662
-0.121896
64.8932
64.9009
64.9167
64.9411
64.9746
65.0155
65.0681
65.1151
65.189
65.2323
65.3016
65.3387
65.3819
-2.35955
-2.23523
-2.23471
-1.94053
-1.82568
-1.56684
-1.3453
-1.10576
-0.861151
-0.614834
-0.368555
-0.122686
64.89
64.8975
64.9132
64.9374
64.9707
65.0116
65.0642
65.1121
65.187
65.2325
65.3022
65.3423
65.3866
-2.37355
-2.24896
-2.2484
-1.9528
-1.8373
-1.57691
-1.35408
-1.11307
-0.8669
-0.618976
-0.371057
-0.123526
64.8867
64.8942
64.9096
64.9336
64.9666
65.0074
65.0601
65.1087
65.1846
65.2324
65.3027
65.3458
65.3914
-2.38801
-2.26311
-2.26252
-1.96549
-1.84934
-1.58736
-1.36321
-1.12068
-0.872895
-0.623297
-0.373669
-0.124403
64.8836
64.8909
64.9061
64.9297
64.9624
65.0031
65.0557
65.1051
65.1821
65.2318
65.3029
65.3491
65.3963
-2.40267
-2.27742
-2.27682
-1.9784
-1.86162
-1.59804
-1.37255
-1.12848
-0.879045
-0.627733
-0.376352
-0.125305
64.8806
64.8877
64.9026
64.9259
64.9583
64.9988
65.0513
65.1013
65.1794
65.2309
65.3031
65.3522
65.4012
-2.4173
-2.29168
-2.29109
-1.99133
-1.87393
-1.60877
-1.38196
-1.13635
-0.885251
-0.632213
-0.379063
-0.126216
64.8777
64.8846
64.8992
64.9221
64.9541
64.9944
65.0468
65.0974
65.1766
65.2297
65.3033
65.3554
65.4064
-2.43165
-2.30566
-2.30508
-2.00405
-1.88608
-1.61939
-1.39128
-1.14416
-0.891413
-0.636665
-0.381757
-0.127122
64.8751
64.8818
64.896
64.9186
64.9501
64.9901
65.0423
65.0936
65.1738
65.2284
65.3035
65.3586
65.4119
-2.44552
-2.31912
-2.31858
-2.01637
-1.89786
-1.6297
-1.40035
-1.15177
-0.897429
-0.641014
-0.384391
-0.128009
64.8727
64.8792
64.8931
64.9152
64.9463
64.986
65.0381
65.0898
65.171
65.227
65.3038
65.3619
65.4178
-2.45867
-2.33187
-2.33137
-2.02808
-1.90909
-1.63956
-1.40903
-1.15906
-0.903197
-0.645186
-0.38692
-0.12886
64.8707
64.8769
64.8904
64.9121
64.9428
64.9821
65.034
65.0862
65.1684
65.2258
65.3044
65.3654
65.4238
-2.47091
-2.3437
-2.34325
-2.03901
-1.91958
-1.64878
-1.41717
-1.1659
-0.908617
-0.649109
-0.389299
-0.129661
64.8691
64.875
64.8881
64.9093
64.9396
64.9786
65.0303
65.0829
65.166
65.2245
65.305
65.3688
65.4298
-2.48208
-2.35447
-2.35403
-2.04897
-1.92915
-1.65721
-1.42463
-1.17218
-0.913594
-0.652715
-0.391485
-0.130398
64.8679
64.8735
64.8861
64.9069
64.9368
64.9755
65.027
65.0799
65.1638
65.2234
65.3056
65.3718
65.4353
-2.49202
-2.36398
-2.36356
-2.05782
-1.93766
-1.66473
-1.43128
-1.17778
-0.91804
-0.655937
-0.393441
-0.131058
64.8674
64.8724
64.8845
64.9048
64.9344
64.9728
65.0241
65.0774
65.1619
65.2224
65.306
65.3743
65.44
-2.5006
-2.37217
-2.37171
-2.06542
-1.94497
-1.67119
-1.437
-1.18261
-0.921877
-0.658719
-0.39513
-0.131627
64.8671
64.8716
64.8832
64.9032
64.9324
64.9705
65.0218
65.0753
65.1603
65.2214
65.3059
65.3761
65.4434
-2.50771
-2.37885
-2.37834
-2.07164
-1.95096
-1.67648
-1.4417
-1.18659
-0.925033
-0.661009
-0.396521
-0.132096
64.869
64.8716
64.8823
64.902
64.9309
64.9689
65.02
65.0737
65.159
65.2206
65.3055
65.3769
65.4456
-2.51328
-2.38408
-2.3834
-2.07642
-1.95555
-1.68053
-1.44531
-1.18963
-0.927454
-0.662766
-0.397588
-0.132456
64.8688
64.8711
64.8816
64.9012
64.9299
64.9677
65.0187
65.0725
65.158
65.2199
65.3045
65.3769
65.4464
-2.51722
-2.3875
-2.38678
-2.07965
-1.95865
-1.68326
-1.44775
-1.1917
-0.929094
-0.663956
-0.398311
-0.1327
64.8748
64.872
64.8814
64.9009
64.9295
64.9673
65.0181
65.072
65.1575
65.22
65.3034
65.3714
65.4462
-2.51945
-2.38976
-2.38847
-2.08137
-1.96027
-1.6846
-1.44899
-1.19275
-0.929927
-0.66456
-0.398678
-0.132823
64.9124
64.912
64.9254
64.9493
64.982
65.0212
65.0723
65.1125
65.1817
65.2077
65.283
65.3039
65.3403
-2.33175
-2.20331
-2.19715
-1.90396
-1.78532
-1.52961
-1.30891
-1.07295
-0.833702
-0.594042
-0.355475
-0.118104
64.9057
64.9104
64.9248
64.9488
64.9816
65.0209
65.072
65.1125
65.1817
65.2093
65.2803
65.3037
65.3415
-2.3327
-2.2046
-2.19907
-1.90548
-1.78681
-1.53097
-1.31003
-1.07387
-0.834425
-0.59456
-0.355784
-0.118207
64.9036
64.9089
64.9237
64.9477
64.9806
65.02
65.0712
65.112
65.1813
65.2102
65.2807
65.3044
65.3434
-2.33593
-2.20844
-2.20294
-1.90881
-1.78993
-1.53366
-1.31233
-1.07577
-0.835909
-0.595623
-0.356423
-0.118421
64.8999
64.9066
64.922
64.9461
64.979
65.0185
65.0698
65.1111
65.1807
65.2112
65.2805
65.3058
65.3456
-2.34125
-2.21401
-2.20868
-1.91375
-1.7946
-1.53766
-1.31578
-1.07861
-0.838134
-0.597219
-0.357383
-0.118742
64.8969
64.9042
64.9198
64.944
64.977
65.0166
65.0678
65.1099
65.1797
65.2121
65.2805
65.3076
65.348
-2.34855
-2.22151
-2.21622
-1.92031
-1.80076
-1.54294
-1.32033
-1.08237
-0.841074
-0.599328
-0.358654
-0.119167
64.8938
64.9014
64.9172
64.9414
64.9744
65.0141
65.0654
65.1081
65.1783
65.2128
65.2804
65.3096
65.3505
-2.35765
-2.23066
-2.2254
-1.92834
-1.80832
-1.54942
-1.32593
-1.087
-0.844696
-0.601928
-0.36022
-0.119692
64.8907
64.8985
64.9144
64.9385
64.9714
65.0112
65.0625
65.1059
65.1766
65.213
65.2802
65.3117
65.3531
-2.3684
-2.24141
-2.23613
-1.93776
-1.81717
-1.55702
-1.3325
-1.09244
-0.848956
-0.604988
-0.362065
-0.12031
64.8875
64.8953
64.9112
64.9352
64.968
65.0078
65.059
65.1032
65.1743
65.2128
65.2796
65.3136
65.3556
-2.3806
-2.25349
-2.24819
-1.9484
-1.8272
-1.56563
-1.33997
-1.09862
-0.853801
-0.60847
-0.364166
-0.121014
64.8842
64.892
64.9078
64.9317
64.9643
65.004
65.0551
65.0999
65.1716
65.212
65.2783
65.315
65.3577
-2.39402
-2.26673
-2.26141
-1.9601
-1.83824
-1.57514
-1.34822
-1.10546
-0.859169
-0.612329
-0.366495
-0.121795
64.8809
64.8886
64.9042
64.9279
64.9603
64.9998
65.0508
65.0961
65.1683
65.2104
65.2762
65.3156
65.3591
-2.40842
-2.28091
-2.27557
-1.97269
-1.85013
-1.5854
-1.35714
-1.11287
-0.864986
-0.616514
-0.369022
-0.122643
64.8776
64.8852
64.9006
64.9239
64.956
64.9953
65.046
65.0917
65.1645
65.2078
65.2731
65.315
65.3594
-2.42355
-2.29577
-2.29043
-1.98595
-1.86269
-1.59627
-1.36661
-1.12074
-0.871171
-0.620967
-0.371711
-0.123546
64.8743
64.8818
64.8968
64.9198
64.9515
64.9905
65.0408
65.0867
65.1601
65.2041
65.2689
65.313
65.3584
-2.43915