/*--------------------------------*- C++ -*----------------------------------*\
| =========                 |                                                 |
| \\      /  F ield         | OpenFOAM: The Open Source CFD Toolbox           |
|  \\    /   O peration     | Version:  2306                                  |
|   \\  /    A nd           | Website:  www.openfoam.com                      |
|    \\/     M anipulation  |                                                 |
\*---------------------------------------------------------------------------*/
FoamFile
{
    version     2.0;
    format      ascii;
    arch        "LSB;label=32;scalar=64";
    class       volScalarField;
    location    "3.5";
    object      p;
}
// * * * * * * * * * * * * * * * * * * * * * * * * * * * * * * * * * * * * * //

dimensions      [0 2 -2 0 0 0 0];

internalField   nonuniform List<scalar> 
288632
(
59.7502
59.7418
59.7528
59.7757
59.8075
59.8462
59.8957
59.9297
60.0093
60.0112
60.1103
60.1108
60.1492
-1.54452
-1.44212
-1.50246
-1.26232
-1.22219
-1.04421
-0.899668
-0.741863
-0.579606
-0.414939
-0.249387
-0.0832818
59.7433
59.7403
59.7522
59.7751
59.8071
59.8458
59.8954
59.9297
60.0092
60.0119
60.1101
60.1104
60.1496
-1.54512
-1.443
-1.50402
-1.26351
-1.2234
-1.04529
-0.900566
-0.742603
-0.580185
-0.415353
-0.249636
-0.0833654
59.7411
59.7386
59.7509
59.7739
59.8059
59.8448
59.8945
59.9294
60.0089
60.0132
60.11
60.1109
60.1511
-1.54761
-1.44604
-1.50711
-1.26618
-1.2259
-1.04746
-0.902407
-0.744114
-0.581362
-0.416193
-0.25014
-0.0835336
59.7374
59.7361
59.7488
59.772
59.8042
59.8433
59.8931
59.9287
60.0082
60.0147
60.1097
60.1125
60.1529
-1.55189
-1.45045
-1.51167
-1.27016
-1.22962
-1.05067
-0.905155
-0.74637
-0.583118
-0.417448
-0.250892
-0.0837844
59.734
59.7333
59.7463
59.7697
59.8019
59.8412
59.8912
59.9277
60.0072
60.016
60.11
60.1144
60.1552
-1.55782
-1.45649
-1.51766
-1.27545
-1.23453
-1.0549
-0.908775
-0.749341
-0.585431
-0.419099
-0.251883
-0.0841146
59.7306
59.7302
59.7434
59.7668
59.7992
59.8386
59.8888
59.9264
60.006
60.0174
60.1106
60.1169
60.158
-1.56528
-1.46388
-1.52497
-1.28194
-1.24054
-1.06008
-0.913213
-0.752986
-0.588269
-0.421127
-0.253099
-0.0845198
59.727
59.7269
59.7401
59.7636
59.7959
59.8355
59.886
59.9248
60.0046
60.0189
60.1115
60.1199
60.1615
-1.57414
-1.47261
-1.53352
-1.28955
-1.24757
-1.06615
-0.918409
-0.757253
-0.591593
-0.423501
-0.254524
-0.0849946
59.7234
59.7233
59.7365
59.7599
59.7923
59.832
59.8828
59.923
60.0031
60.0207
60.1128
60.1235
60.1656
-1.58427
-1.48247
-1.54314
-1.29815
-1.25552
-1.07301
-0.924286
-0.762084
-0.595356
-0.42619
-0.256137
-0.0855323
59.7196
59.7195
59.7326
59.756
59.7883
59.8282
59.8792
59.921
60.0016
60.0226
60.1147
60.1279
60.1706
-1.59548
-1.49334
-1.55373
-1.30763
-1.26426
-1.08056
-0.93076
-0.767408
-0.599505
-0.429155
-0.257917
-0.0861254
59.7157
59.7155
59.7286
59.7518
59.784
59.8241
59.8754
59.9188
60
60.0248
60.1173
60.1331
60.1767
-1.60759
-1.50504
-1.56509
-1.31783
-1.27366
-1.0887
-0.937736
-0.773147
-0.603978
-0.432352
-0.259836
-0.0867653
59.7118
59.7115
59.7244
59.7474
59.7796
59.8197
59.8714
59.9165
59.9984
60.0273
60.1206
60.1394
60.1839
-1.62042
-1.51738
-1.57707
-1.3286
-1.28359
-1.09729
-0.945109
-0.779216
-0.60871
-0.435736
-0.261868
-0.0874427
59.7078
59.7075
59.7201
59.7429
59.7749
59.8152
59.8673
59.9142
59.9969
60.0303
60.1248
60.147
60.1926
-1.63374
-1.53015
-1.58946
-1.33976
-1.29389
-1.10622
-0.952767
-0.785522
-0.613628
-0.439254
-0.26398
-0.0881472
59.704
59.7035
59.7159
59.7385
59.7703
59.8107
59.8632
59.9119
59.9957
60.0337
60.13
60.1559
60.2029
-1.64736
-1.54317
-1.60208
-1.35115
-1.30439
-1.11532
-0.96059
-0.791967
-0.618658
-0.442852
-0.266141
-0.0888682
59.7002
59.6996
59.7117
59.734
59.7656
59.8061
59.859
59.9097
59.9947
60.0377
60.1363
60.1662
60.215
-1.66105
-1.55622
-1.61472
-1.36258
-1.31494
-1.12448
-0.968455
-0.798451
-0.623719
-0.446474
-0.268318
-0.0895943
59.6966
59.6958
59.7077
59.7297
59.7611
59.8016
59.855
59.9077
59.994
60.0423
60.1439
60.1779
60.2288
-1.67459
-1.56908
-1.62719
-1.37386
-1.32536
-1.13353
-0.976236
-0.804869
-0.628732
-0.450063
-0.270474
-0.0903139
59.6933
59.6923
59.7039
59.7256
59.7568
59.7973
59.8512
59.9059
59.9936
60.0473
60.1525
60.1909
60.2442
-1.68777
-1.58157
-1.63928
-1.38482
-1.33548
-1.14233
-0.983808
-0.811117
-0.633613
-0.453558
-0.272575
-0.0910152
59.6903
59.6891
59.7004
59.7217
59.7526
59.7933
59.8477
59.9044
59.9936
60.0528
60.1622
60.2051
60.2611
-1.70038
-1.59347
-1.65079
-1.39528
-1.34514
-1.15073
-0.991045
-0.817093
-0.638284
-0.456904
-0.274586
-0.0916867
59.6877
59.6862
59.6971
59.7181
59.7489
59.7896
59.8444
59.9032
59.9939
60.0585
60.1726
60.2201
60.2791
-1.71221
-1.6046
-1.66154
-1.40507
-1.35417
-1.15861
-0.997827
-0.822695
-0.642664
-0.460043
-0.276473
-0.092317
59.6855
59.6838
59.6943
59.715
59.7454
59.7862
59.8415
59.9022
59.9945
60.0643
60.1834
60.2354
60.2977
-1.72309
-1.61479
-1.67135
-1.41403
-1.36244
-1.16582
-1.00404
-0.82783
-0.646681
-0.462922
-0.278205
-0.0928952
59.6839
59.6818
59.6919
59.7122
59.7424
59.7833
59.839
59.9015
59.9953
60.07
60.1941
60.2506
60.3162
-1.73285
-1.62387
-1.68007
-1.42201
-1.3698
-1.17225
-1.00958
-0.832411
-0.650265
-0.465491
-0.27975
-0.0934114
59.6829
59.6803
59.6899
59.7099
59.7399
59.7808
59.8369
59.901
59.9962
60.0753
60.2041
60.2648
60.3338
-1.74133
-1.63173
-1.68755
-1.4289
-1.37614
-1.17779
-1.01435
-0.836358
-0.653354
-0.467706
-0.281083
-0.0938565
59.6825
59.6792
59.6883
59.708
59.7379
59.7788
59.8353
59.9007
59.9971
60.0799
60.213
60.2775
60.3495
-1.74842
-1.6382
-1.69367
-1.43456
-1.38134
-1.18233
-1.01828
-0.839603
-0.655895
-0.469528
-0.282179
-0.0942226
59.6839
59.6788
59.6872
59.7066
59.7364
59.7773
59.834
59.9006
59.9979
60.0836
60.2203
60.2879
60.3626
-1.75403
-1.64332
-1.69834
-1.43894
-1.38533
-1.18581
-1.02128
-0.842092
-0.657843
-0.470924
-0.283019
-0.0945029
59.6839
59.6783
59.6864
59.7057
59.7353
59.7763
59.8332
59.9005
59.9985
60.0862
60.2252
60.2956
60.3723
-1.75804
-1.64669
-1.70148
-1.44191
-1.38803
-1.18816
-1.02332
-0.843779
-0.659163
-0.47187
-0.283588
-0.0946925
59.6896
59.6789
59.6862
59.7054
59.7349
59.7759
59.8329
59.9005
59.9989
60.0878
60.2282
60.2993
60.3782
-1.76039
-1.64901
-1.70304
-1.44352
-1.38943
-1.18933
-1.02436
-0.844645
-0.659834
-0.472352
-0.283876
-0.0947876
59.742
59.7387
59.7506
59.7735
59.8053
59.844
59.8934
59.9275
60.0069
60.0093
60.1074
60.1083
60.1479
-1.54926
-1.44726
-1.50752
-1.2663
-1.22514
-1.04658
-0.901093
-0.742709
-0.580033
-0.415098
-0.249412
-0.0832659
59.7352
59.7369
59.75
59.7729
59.8048
59.8436
59.8931
59.9275
60.0067
60.0111
60.1041
60.1079
60.1486
-1.54983
-1.44817
-1.50912
-1.26752
-1.22637
-1.04769
-0.902004
-0.743462
-0.580621
-0.415518
-0.249664
-0.0833508
59.7331
59.7352
59.7487
59.7717
59.8037
59.8425
59.8922
59.9271
60.0063
60.0124
60.1037
60.1084
60.1501
-1.55236
-1.45126
-1.51226
-1.27024
-1.22891
-1.04988
-0.903871
-0.744995
-0.581814
-0.41637
-0.250175
-0.0835211
59.7295
59.7327
59.7466
59.7698
59.8019
59.8409
59.8907
59.9264
60.0055
60.0136
60.1033
60.1098
60.152
-1.5567
-1.45576
-1.51691
-1.27429
-1.23269
-1.05315
-0.906659
-0.747283
-0.583595
-0.417641
-0.250937
-0.0837751
59.7262
59.73
59.7441
59.7674
59.7996
59.8388
59.8887
59.9253
60.0044
60.0148
60.1033
60.1116
60.1543
-1.56272
-1.46191
-1.52301
-1.27967
-1.23768
-1.05744
-0.910332
-0.750296
-0.585939
-0.419315
-0.251941
-0.0841097
59.7226
59.727
59.7411
59.7645
59.7968
59.8361
59.8862
59.9239
60.0031
60.0161
60.1037
60.1139
60.1571
-1.57029
-1.46943
-1.53045
-1.28626
-1.24379
-1.06271
-0.914836
-0.753992
-0.588817
-0.421369
-0.253173
-0.0845203
59.719
59.7237
59.7378
59.7612
59.7935
59.833
59.8833
59.9222
60.0015
60.0174
60.1044
60.1167
60.1604
-1.57928
-1.47832
-1.53914
-1.294
-1.25093
-1.06887
-0.92011
-0.758322
-0.592187
-0.423777
-0.254617
-0.0850015
59.7153
59.7201
59.7342
59.7575
59.7898
59.8294
59.88
59.9202
59.9998
60.0188
60.1055
60.1202
60.1644
-1.58954
-1.48836
-1.54895
-1.30276
-1.25901
-1.07584
-0.926078
-0.763223
-0.596004
-0.426503
-0.256253
-0.0855466
59.7115
59.7163
59.7303
59.7535
59.7858
59.8255
59.8763
59.9179
59.998
60.0203
60.1071
60.1243
60.1693
-1.60091
-1.49943
-1.55972
-1.3124
-1.26789
-1.08352
-0.932654
-0.768626
-0.600213
-0.429511
-0.258058
-0.0861481
59.7076
59.7123
59.7262
59.7493
59.7814
59.8213
59.8723
59.9155
59.9961
60.022
60.1092
60.1293
60.1751
-1.6132
-1.51134
-1.57129
-1.32278
-1.27746
-1.09179
-0.939741
-0.774453
-0.604753
-0.432755
-0.260005
-0.0867973
59.7037
59.7083
59.722
59.7449
59.7769
59.8168
59.8681
59.9129
59.9942
60.024
60.1119
60.1354
60.1821
-1.62621
-1.5239
-1.58349
-1.33374
-1.28756
-1.10053
-0.947233
-0.780615
-0.609557
-0.436189
-0.262067
-0.0874847
59.6997
59.7042
59.7177
59.7404
59.7721
59.8121
59.8638
59.9102
59.9923
60.0264
60.1154
60.1426
60.1904
-1.63972
-1.53691
-1.59611
-1.3451
-1.29803
-1.1096
-0.955017
-0.787021
-0.614552
-0.439761
-0.264212
-0.0881999
59.6959
59.7002
59.7134
59.7358
59.7674
59.8074
59.8594
59.9076
59.9906
60.0291
60.1198
60.151
60.2003
-1.65353
-1.55016
-1.60897
-1.35669
-1.30872
-1.11887
-0.962971
-0.79357
-0.619662
-0.443416
-0.266407
-0.0889321
59.6921
59.6962
59.7092
59.7313
59.7626
59.8026
59.855
59.905
59.989
60.0323
60.1252
60.1606
60.2118
-1.66741
-1.56345
-1.62184
-1.36832
-1.31945
-1.12818
-0.970971
-0.80016
-0.624805
-0.447096
-0.268617
-0.0896697
59.6885
59.6925
59.7051
59.7269
59.758
59.798
59.8507
59.9025
59.9878
60.036
60.1318
60.1717
60.225
-1.68113
-1.57654
-1.63454
-1.37981
-1.33005
-1.13739
-0.978887
-0.806685
-0.6299
-0.450743
-0.270809
-0.090401
59.6852
59.689
59.7013
59.7227
59.7535
59.7935
59.8466
59.9003
59.9869
60.0401
60.1394
60.184
60.2399
-1.6945
-1.58925
-1.64685
-1.39096
-1.34036
-1.14635
-0.986591
-0.813039
-0.634864
-0.454297
-0.272944
-0.091114
59.6822
59.6857
59.6977
59.7188
59.7493
59.7893
59.8427
59.8983
59.9863
60.0445
60.148
60.1974
60.2562
-1.70727
-1.60136
-1.65857
-1.40161
-1.35019
-1.15491
-0.993957
-0.819117
-0.639614
-0.457699
-0.274989
-0.0917967
59.6795
59.6828
59.6944
59.7152
59.7454
59.7854
59.8392
59.8966
59.986
60.0493
60.1573
60.2116
60.2737
-1.71926
-1.61269
-1.66952
-1.41158
-1.35939
-1.16292
-1.00086
-0.824817
-0.64407
-0.460891
-0.276909
-0.0924378
59.6773
59.6804
59.6916
59.7119
59.7419
59.7819
59.836
59.8952
59.9861
60.0541
60.167
60.2263
60.2918
-1.73029
-1.62306
-1.67952
-1.4207
-1.36781
-1.17027
-1.00719
-0.830042
-0.648157
-0.46382
-0.27867
-0.0930261
59.6757
59.6783
59.6891
59.7091
59.7388
59.7788
59.8333
59.8941
59.9863
60.0588
60.1766
60.2407
60.3097
-1.74017
-1.63229
-1.68839
-1.42883
-1.37531
-1.17681
-1.01283
-0.834704
-0.651805
-0.466434
-0.280243
-0.0935513
59.6747
59.6768
59.6871
59.7067
59.7362
59.7761
59.831
59.8933
59.9868
60.0632
60.1857
60.2543
60.3268
-1.74876
-1.64029
-1.69601
-1.43584
-1.38176
-1.18245
-1.01769
-0.838722
-0.654949
-0.468689
-0.281599
-0.0940043
59.6742
59.6757
59.6855
59.7048
59.7341
59.774
59.8291
59.8927
59.9873
60.0671
60.1937
60.2664
60.3421
-1.75594
-1.64687
-1.70224
-1.4416
-1.38705
-1.18708
-1.02168
-0.842026
-0.657535
-0.470543
-0.282715
-0.0943769
59.6756
59.6753
59.6844
59.7034
59.7325
59.7724
59.8277
59.8923
59.9878
60.0702
60.2002
60.2764
60.3549
-1.76162
-1.65206
-1.707
-1.44606
-1.39111
-1.19063
-1.02474
-0.844559
-0.659518
-0.471965
-0.28357
-0.0946624
59.6756
59.6748
59.6836
59.7025
59.7314
59.7714
59.8268
59.892
59.9882
60.0724
60.2046
60.2836
60.3643
-1.76568
-1.65549
-1.71019
-1.44907
-1.39386
-1.19301
-1.02682
-0.846277
-0.660862
-0.472928
-0.284149
-0.0948554
59.6813
59.6755
59.6833
59.7021
59.731
59.7709
59.8264
59.892
59.9885
60.0736
60.208
60.2859
60.3697
-1.76806
-1.65784
-1.71176
-1.45071
-1.39528
-1.1942
-1.02788
-0.847155
-0.661544
-0.473417
-0.284442
-0.094952
59.7367
59.734
59.7461
59.769
59.8007
59.8392
59.8885
59.9227
60.0017
60.0053
60.1019
60.1039
60.1446
-1.56012
-1.45852
-1.51733
-1.27412
-1.23071
-1.05093
-0.903624
-0.744114
-0.580644
-0.415229
-0.249333
-0.0831812
59.7302
59.7321
59.7455
59.7684
59.8002
59.8388
59.8881
59.9227
60.0015
60.0072
60.0982
60.1035
60.1454
-1.56071
-1.45948
-1.51899
-1.27538
-1.23198
-1.05206
-0.90456
-0.744888
-0.581247
-0.41566
-0.249591
-0.083268
59.7278
59.7305
59.7442
59.7671
59.799
59.8377
59.8872
59.9222
60.0009
60.0082
60.098
60.1039
60.147
-1.56333
-1.46269
-1.52224
-1.27819
-1.2346
-1.05433
-0.906481
-0.746463
-0.582472
-0.416533
-0.250114
-0.0834425
59.724
59.728
59.7421
59.7652
59.7972
59.836
59.8856
59.9213
60
60.0092
60.0975
60.1051
60.1489
-1.56782
-1.46735
-1.52705
-1.28238
-1.23851
-1.05769
-0.909349
-0.748814
-0.5843
-0.417837
-0.250896
-0.0837029
59.7206
59.7254
59.7396
59.7628
59.7949
59.8338
59.8834
59.9201
59.9987
60.0102
60.0972
60.1067
60.151
-1.57405
-1.47373
-1.53336
-1.28794
-1.24365
-1.06212
-0.913128
-0.751911
-0.586708
-0.419555
-0.251926
-0.084046
59.7171
59.7223
59.7366
59.7599
59.7919
59.831
59.8808
59.9184
59.9971
60.0111
60.0972
60.1086
60.1535
-1.58187
-1.48154
-1.54107
-1.29476
-1.24996
-1.06754
-0.917765
-0.755712
-0.589664
-0.421665
-0.253191
-0.0844674
59.7135
59.7189
59.7332
59.7565
59.7885
59.8277
59.8776
59.9164
59.9952
60.012
60.0973
60.1109
60.1564
-1.59116
-1.49075
-1.55008
-1.30276
-1.25733
-1.0739
-0.923196
-0.760166
-0.593129
-0.424138
-0.254674
-0.0849615
59.7097
59.7152
59.7295
59.7527
59.7847
59.824
59.874
59.914
59.993
60.0128
60.0976
60.1137
60.1599
-1.60176
-1.50116
-1.56024
-1.31182
-1.26567
-1.08109
-0.929345
-0.76521
-0.597054
-0.42694
-0.256355
-0.0855215
59.7059
59.7114
59.7256
59.7486
59.7805
59.8198
59.87
59.9113
59.9906
60.0136
60.0982
60.117
60.164
-1.6135
-1.51264
-1.5714
-1.32179
-1.27486
-1.08901
-0.936124
-0.770775
-0.601385
-0.430033
-0.25821
-0.0861399
59.702
59.7073
59.7214
59.7443
59.776
59.8153
59.8657
59.9083
59.988
60.0144
60.0991
60.121
60.1688
-1.6262
-1.52499
-1.5834
-1.33254
-1.28474
-1.09755
-0.943434
-0.776778
-0.60606
-0.433373
-0.260214
-0.0868077
59.698
59.7033
59.7171
59.7398
59.7713
59.8106
59.8611
59.9051
59.9853
60.0153
60.1004
60.1258
60.1746
-1.63963
-1.53801
-1.59604
-1.34388
-1.29519
-1.10658
-0.951167
-0.783131
-0.61101
-0.436909
-0.262337
-0.0875153
59.694
59.6991
59.7128
59.7351
59.7664
59.8056
59.8563
59.9018
59.9826
60.0163
60.1023
60.1314
60.1815
-1.65358
-1.5515
-1.60913
-1.35564
-1.30602
-1.11596
-0.959205
-0.78974
-0.61616
-0.44059
-0.264546
-0.0882521
59.6901
59.6951
59.7084
59.7304
59.7614
59.8005
59.8514
59.8983
59.9799
60.0175
60.1047
60.1379
60.1897
-1.66783
-1.56524
-1.62245
-1.36764
-1.31709
-1.12555
-0.967423
-0.7965
-0.621431
-0.444359
-0.266809
-0.0890069
59.6863
59.6911
59.7041
59.7258
59.7564
59.7954
59.8465
59.8949
59.9773
60.019
60.108
60.1454
60.1992
-1.68215
-1.579
-1.63581
-1.37969
-1.3282
-1.13518
-0.975693
-0.803307
-0.626741
-0.448156
-0.26909
-0.0897678
59.6827
59.6873
59.7
59.7212
59.7515
59.7904
59.8416
59.8916
59.9749
60.0208
60.1122
60.1539
60.2102
-1.69632
-1.59258
-1.64897
-1.39159
-1.33918
-1.14472
-0.983881
-0.810051
-0.632004
-0.451922
-0.271352
-0.0905227
59.6793
59.6837
59.696
59.7169
59.7468
59.7856
59.8369
59.8884
59.9727
60.0229
60.1173
60.1635
60.2226
-1.7101
-1.60575
-1.66174
-1.40315
-1.34985
-1.15399
-0.991854
-0.816621
-0.637134
-0.455593
-0.273558
-0.0912591
59.6762
59.6804
59.6924
59.7128
59.7424
59.781
59.8325
59.8854
59.9709
60.0253
60.1233
60.1741
60.2364
-1.72327
-1.6183
-1.6739
-1.41418
-1.36004
-1.16286
-0.999479
-0.822909
-0.642045
-0.45911
-0.275671
-0.0919647
59.6736
59.6775
59.689
59.7091
59.7382
59.7767
59.8283
59.8828
59.9693
60.028
60.13
60.1855
60.2512
-1.73564
-1.63002
-1.68525
-1.42451
-1.36958
-1.17117
-1.00663
-0.828809
-0.646656
-0.462412
-0.277656
-0.0926276
59.6714
59.675
59.6861
59.7057
59.7345
59.7728
59.8246
59.8805
59.9682
60.0309
60.1371
60.1972
60.2666
-1.747
-1.64077
-1.69561
-1.43396
-1.37831
-1.17878
-1.01318
-0.83422
-0.650886
-0.465442
-0.279479
-0.0932363
59.6697
59.6729
59.6836
59.7028
59.7312
59.7694
59.8214
59.8785
59.9673
60.0337
60.1442
60.2089
60.282
-1.75718
-1.65032
-1.70481
-1.44238
-1.38608
-1.18556
-1.01903
-0.839049
-0.654663
-0.468148
-0.281106
-0.09378
59.6687
59.6714
59.6815
59.7003
59.7285
59.7665
59.8186
59.8769
59.9667
60.0364
60.151
60.2199
60.2966
-1.76603
-1.6586
-1.71272
-1.44965
-1.39277
-1.19141
-1.02407
-0.843212
-0.65792
-0.470483
-0.282511
-0.0942491
59.6682
59.6703
59.6799
59.6983
59.7262
59.7641
59.8163
59.8757
59.9664
60.0388
60.1571
60.2297
60.3098
-1.77343
-1.6654
-1.71917
-1.45562
-1.39826
-1.19621
-1.02821
-0.846636
-0.660599
-0.472403
-0.283666
-0.0946351
59.6695
59.6698
59.6787
59.6969
59.7245
59.7624
59.8147
59.8748
59.9661
60.0407
60.162
60.2377
60.3207
-1.77926
-1.67077
-1.7241
-1.46023
-1.40247
-1.19988
-1.03139
-0.849262
-0.662654
-0.473876
-0.284552
-0.0949309
59.6695
59.6694
59.6779
59.6959
59.7234
59.7612
59.8135
59.8742
59.966
60.0421
60.1651
60.2437
60.3286
-1.78344
-1.67432
-1.72741
-1.46335
-1.40532
-1.20236
-1.03354
-0.851041
-0.664046
-0.474874
-0.285152
-0.095131
59.6751
59.67
59.6776
59.6955
59.7229
59.7607
59.813
59.8739
59.9661
60.043
60.1675
60.2471
60.333
-1.78588
-1.67674
-1.72904
-1.46504
-1.40679
-1.2036
-1.03464
-0.851947
-0.664753
-0.475381
-0.285456
-0.0952313
59.7286
59.727
59.7395
59.7622
59.7938
59.832
59.881
59.9154
59.9938
59.9989
60.0935
60.0976
60.1389
-1.57763
-1.47522
-1.53185
-1.28574
-1.23889
-1.05724
-0.907244
-0.746051
-0.58141
-0.415306
-0.249132
-0.0830219
59.7221
59.7252
59.7388
59.7616
59.7932
59.8316
59.8806
59.9153
59.9935
60.0006
60.0896
60.097
60.1398
-1.57827
-1.47627
-1.53359
-1.28707
-1.24022
-1.05842
-0.90822
-0.746857
-0.582036
-0.415752
-0.249399
-0.0831113
59.7197
59.7236
59.7374
59.7603
59.792
59.8304
59.8795
59.9147
59.9928
60.0015
60.0893
60.0973
60.1413
-1.58105
-1.47965
-1.537
-1.29002
-1.24297
-1.06079
-0.91022
-0.748494
-0.583308
-0.416658
-0.249941
-0.083292
59.7158
59.7211
59.7354
59.7584
59.7901
59.8286
59.8778
59.9136
59.9916
60.0022
60.0883
60.0982
60.143
-1.58578
-1.48458
-1.54206
-1.29442
-1.24705
-1.0643
-0.913208
-0.75094
-0.585207
-0.418011
-0.250752
-0.083562
59.7124
59.7184
59.7328
59.7559
59.7877
59.8262
59.8755
59.9121
59.99
60.0028
60.0876
60.0993
60.1447
-1.59233
-1.4913
-1.54871
-1.30025
-1.25244
-1.06892
-0.917147
-0.754163
-0.58771
-0.419795
-0.251821
-0.0839179
59.7089
59.7152
59.7298
59.7529
59.7846
59.8233
59.8725
59.9101
59.988
60.0031
60.0869
60.1007
60.1467
-1.60056
-1.49953
-1.55682
-1.30741
-1.25904
-1.07459
-0.921983
-0.758121
-0.590784
-0.421988
-0.253134
-0.0843554
59.7052
59.7117
59.7264
59.7494
59.7811
59.8197
59.8691
59.9076
59.9855
60.0033
60.0861
60.1022
60.1489
-1.61033
-1.50925
-1.56631
-1.31582
-1.26677
-1.08124
-0.927651
-0.762762
-0.59439
-0.424559
-0.254676
-0.0848688
59.7015
59.708
59.7226
59.7455
59.777
59.8157
59.8651
59.9047
59.9827
60.0032
60.0853
60.104
60.1513
-1.62149
-1.52022
-1.57701
-1.32533
-1.27551
-1.08876
-0.934073
-0.768023
-0.598479
-0.427476
-0.256425
-0.0854513
59.6976
59.7041
59.7186
59.7413
59.7726
59.8113
59.8606
59.9013
59.9794
60.0028
60.0845
60.1061
60.1541
-1.63384
-1.53232
-1.58877
-1.33581
-1.28514
-1.09706
-0.941159
-0.77383
-0.602995
-0.430699
-0.258357
-0.086095
59.6936
59.7
59.7143
59.7368
59.7679
59.8064
59.8557
59.8975
59.9759
60.0023
60.0836
60.1084
60.1572
-1.64718
-1.54534
-1.60141
-1.3471
-1.29552
-1.10601
-0.948806
-0.780101
-0.607873
-0.434181
-0.260445
-0.086791
59.6896
59.6959
59.7099
59.7321
59.7629
59.8012
59.8505
59.8934
59.972
60.0014
60.0827
60.1111
60.1608
-1.66129
-1.55906
-1.61473
-1.35902
-1.30649
-1.11548
-0.956903
-0.786745
-0.613043
-0.437872
-0.26266
-0.0875291
59.6856
59.6917
59.7054
59.7273
59.7577
59.7958
59.845
59.889
59.9679
60.0004
60.0818
60.1142
60.165
-1.67596
-1.57328
-1.62853
-1.3714
-1.31788
-1.12533
-0.965326
-0.793661
-0.618428
-0.441718
-0.264968
-0.0882986
59.6816
59.6875
59.7009
59.7224
59.7524
59.7902
59.8394
59.8844
59.9637
59.9992
60.0812
60.1175
60.1699
-1.69093
-1.58776
-1.64259
-1.38403
-1.32951
-1.13539
-0.973946
-0.800743
-0.623945
-0.445659
-0.267334
-0.0890876
59.6778
59.6835
59.6965
59.7176
59.7471
59.7846
59.8336
59.8796
59.9594
59.9979
60.081
60.1213
60.1756
-1.70598
-1.60227
-1.65667
-1.39671
-1.3412
-1.14552
-0.982627
-0.80788
-0.629507
-0.449635
-0.26972
-0.0898839
59.6741
59.6796
59.6923
59.7128
59.7419
59.7791
59.8279
59.8749
59.9551
59.9967
60.0813
60.1257
60.1822
-1.72086
-1.61657
-1.67056
-1.40924
-1.35276
-1.15555
-0.991228
-0.814957
-0.635025
-0.45358
-0.27209
-0.0906746
59.6707
59.676
59.6882
59.7083
59.7368
59.7737
59.8223
59.8703
59.9511
59.9957
60.0823
60.131
60.19
-1.73532
-1.63044
-1.68402
-1.42142
-1.364
-1.16531
-0.99961
-0.821858
-0.640409
-0.457431
-0.274403
-0.0914467
59.6676
59.6726
59.6844
59.704
59.7321
59.7685
59.817
59.8659
59.9473
59.9948
60.0839
60.1369
60.1987
-1.74914
-1.64365
-1.69684
-1.43304
-1.37474
-1.17464
-1.00763
-0.828466
-0.645567
-0.461122
-0.276621
-0.0921872
59.6648
59.6696
59.681
59.7001
59.7276
59.7637
59.812
59.8618
59.9438
59.9942
60.0862
60.1434
60.2083
-1.76211
-1.656
-1.70881
-1.44391
-1.38479
-1.18339
-1.01516
-0.834671
-0.650413
-0.464591
-0.278706
-0.0928834
59.6626
59.667
59.678
59.6965
59.7236
59.7593
59.8074
59.8581
59.9407
59.9938
60.0889
60.1504
60.2184
-1.77401
-1.6673
-1.71974
-1.45388
-1.39399
-1.19141
-1.02206
-0.840365
-0.654862
-0.467776
-0.280621
-0.0935231
59.6609
59.6649
59.6753
59.6934
59.72
59.7554
59.8034
59.8548
59.938
59.9937
60.0918
60.1573
60.2285
-1.78468
-1.67734
-1.72944
-1.46274
-1.40219
-1.19856
-1.02822
-0.845449
-0.658836
-0.470623
-0.282333
-0.094095
59.6598
59.6633
59.6732
59.6908
59.717
59.7521
59.7999
59.852
59.9358
59.9936
60.0947
60.1638
60.2382
-1.79394
-1.68604
-1.73777
-1.4704
-1.40925
-1.20472
-1.03353
-0.849834
-0.662265
-0.473079
-0.28381
-0.0945887
59.6593
59.6622
59.6715
59.6887
59.7145
59.7494
59.7971
59.8498
59.9341
59.9936
60.0972
60.1694
60.2467
-1.80167
-1.69319
-1.74457
-1.47668
-1.41503
-1.20978
-1.0379
-0.853442
-0.665087
-0.475101
-0.285027
-0.0949951
59.6606
59.6618
59.6703
59.6871
59.7127
59.7473
59.7949
59.8481
59.9327
59.9937
60.0992
60.174
60.2537
-1.80777
-1.69882
-1.74977
-1.48153
-1.41948
-1.21366
-1.04124
-0.856209
-0.667251
-0.476653
-0.28596
-0.0953067
59.6606
59.6613
59.6694
59.6861
59.7114
59.7459
59.7935
59.8469
59.9318
59.9937
60.1002
60.1772
60.2585
-1.81214
-1.70254
-1.75325
-1.48482
-1.42248
-1.21628
-1.04351
-0.858084
-0.668718
-0.477704
-0.286592
-0.0955177
59.6662
59.662
59.6691
59.6857
59.7109
59.7454
59.7928
59.8464
59.9315
59.994
60.1008
60.1788
60.261
-1.81468
-1.70504
-1.75498
-1.48659
-1.42403
-1.21759
-1.04468
-0.859038
-0.669463
-0.478238
-0.286913
-0.0956239
59.7193
59.7183
59.7308
59.7533
59.7845
59.8224
59.871
59.9056
59.9833
59.99
60.0826
60.0888
60.1306
-1.60164
-1.49767
-1.55113
-1.30114
-1.2496
-1.0654
-0.911834
-0.748404
-0.582229
-0.41525
-0.248759
-0.0827706
59.7127
59.7166
59.73
59.7527
59.784
59.8219
59.8705
59.9054
59.9829
59.9915
60.0786
60.0881
60.1315
-1.60239
-1.49883
-1.55298
-1.30257
-1.25101
-1.06665
-0.912862
-0.74925
-0.582885
-0.415716
-0.249037
-0.0828636
59.7103
59.7149
59.7287
59.7514
59.7827
59.8207
59.8693
59.9046
59.982
59.9921
60.0781
60.0882
60.1329
-1.60539
-1.50245
-1.55663
-1.30571
-1.25391
-1.06915
-0.914969
-0.750971
-0.584219
-0.416665
-0.249605
-0.0830524
59.7065
59.7124
59.7266
59.7494
59.7807
59.8188
59.8674
59.9033
59.9805
59.9924
60.0767
60.0887
60.1342
-1.61046
-1.50774
-1.56203
-1.31038
-1.25824
-1.07286
-0.918118
-0.753542
-0.586212
-0.418084
-0.250454
-0.083335
59.703
59.7095
59.724
59.7468
59.7781
59.8162
59.8648
59.9014
59.9784
59.9925
60.0752
60.0892
60.1355
-1.61747
-1.51494
-1.56912
-1.31659
-1.26395
-1.07775
-0.922271
-0.756933
-0.588842
-0.419956
-0.251575
-0.0837079
59.6995
59.7063
59.7209
59.7437
59.7749
59.813
59.8615
59.8989
59.9758
59.9922
60.0736
60.0898
60.1366
-1.62627
-1.52375
-1.57778
-1.32421
-1.27095
-1.08375
-0.927373
-0.761101
-0.592074
-0.422258
-0.252954
-0.0841669
59.6958
59.7027
59.7174
59.7401
59.7712
59.8092
59.8577
59.8959
59.9726
59.9913
60.0717
60.0903
60.1377
-1.63671
-1.53414
-1.58792
-1.33315
-1.27915
-1.09078
-0.933359
-0.765992
-0.595869
-0.424962
-0.254573
-0.084706
59.692
59.699
59.7135
59.736
59.7669
59.8048
59.8532
59.8922
59.9689
59.99
60.0694
60.0907
60.1387
-1.64863
-1.54588
-1.59935
-1.34328
-1.28844
-1.09876
-0.940148
-0.771543
-0.600177
-0.428032
-0.256413
-0.0853185
59.6881
59.695
59.7094
59.7316
59.7622
59.7999
59.8481
59.8879
59.9645
59.9881
60.0665
60.0908
60.1395
-1.66183
-1.55883
-1.61193
-1.35445
-1.29868
-1.10756
-0.947646
-0.777677
-0.60494
-0.431427
-0.258448
-0.0859962
59.684
59.6908
59.705
59.7269
59.7572
59.7946
59.8425
59.8831
59.9596
59.9855
60.063
60.0907
60.14
-1.67608
-1.57276
-1.62545
-1.36649
-1.30972
-1.11707
-0.955748
-0.78431
-0.610092
-0.435101
-0.26065
-0.0867298
59.68
59.6866
59.7005
59.722
59.7518
59.7889
59.8365
59.8777
59.9542
59.9822
60.0588
60.0902
60.1402
-1.69115
-1.58745
-1.63971
-1.37921
-1.3214
-1.12713
-0.964336
-0.791344
-0.615559
-0.439
-0.262988
-0.0875091
59.6759
59.6823
59.6959
59.717
59.7463
59.7829
59.8301
59.8719
59.9482
59.9782
60.0541
60.0889
60.1401
-1.70681
-1.60266
-1.65448
-1.39242
-1.33354
-1.13761
-0.973281
-0.798677
-0.62126
-0.443069
-0.265428
-0.0883224
59.6719
59.6781
59.6912
59.7119
59.7406
59.7767
59.8234
59.8657
59.9419
59.9736
60.0489
60.0872
60.1396
-1.7228
-1.61816
-1.66952
-1.4059
-1.34595
-1.14832
-0.982444
-0.806194
-0.627109
-0.447244
-0.267933
-0.0891577
59.6679
59.6739
59.6867
59.7068
59.7349
59.7704
59.8166
59.8592
59.9353
59.9684
60.0435
60.085
60.1389
-1.73885
-1.63367
-1.6846
-1.41945
-1.35843
-1.15912
-0.991683
-0.813779
-0.633013
-0.45146
-0.270463
-0.0900017
59.6642
59.67
59.6823
59.7018
59.7292
59.7641
59.8097
59.8526
59.9285
59.9629
60.038
60.0828
60.1383
-1.75471
-1.64897
-1.69947
-1.43284
-1.37078
-1.16982
-1.00085
-0.821308
-0.638878
-0.45565
-0.272979
-0.0908409
59.6607
59.6662
59.6781
59.697
59.7237
59.758
59.8029
59.846
59.9218
59.9572
60.0327
60.0806
60.138
-1.77013
-1.6638
-1.71389
-1.44585
-1.3828
-1.18024
-1.00978
-0.828658
-0.644606
-0.459743
-0.275437
-0.0916614
59.6576
59.6628
59.6741
59.6925
59.7185
59.7521
59.7964
59.8396
59.9152
59.9516
60.0277
60.0787
60.1381
-1.78485
-1.67792
-1.72762
-1.45827
-1.39428
-1.19021
-1.01835
-0.835704
-0.6501
-0.463672
-0.277797
-0.0924492
59.6548
59.6597
59.6706
59.6883
59.7136
59.7466
59.7902
59.8336
59.9089
59.9462
60.0233
60.0771
60.1388
-1.79865
-1.6911
-1.74044
-1.4699
-1.40503
-1.19956
-1.02638
-0.842325
-0.655266
-0.467367
-0.280017
-0.0931907
59.6525
59.657
59.6674
59.6845
59.7092
59.7415
59.7845
59.8279
59.9031
59.9412
60.0193
60.0758
60.1397
-1.81131
-1.70316
-1.75213
-1.48055
-1.41489
-1.20814
-1.03376
-0.848406
-0.660013
-0.470764
-0.282059
-0.0938727
59.6507
59.6549
59.6647
59.6812
59.7053
59.737
59.7795
59.8229
59.8979
59.9366
60.0158
60.0746
60.1406
-1.82264
-1.71388
-1.76251
-1.49003
-1.42366
-1.21579
-1.04035
-0.853838
-0.664256
-0.473801
-0.283885
-0.0944828
59.6496
59.6532
59.6624
59.6784
59.7019
59.7331
59.7751
59.8186
59.8933
59.9325
60.0127
60.0733
60.1413
-1.83247
-1.72315
-1.77142
-1.49821
-1.43122
-1.22239
-1.04603
-0.858527
-0.66792
-0.476424
-0.285463
-0.09501
59.649
59.6521
59.6606
59.6761
59.6992
59.7299
59.7715
59.815
59.8895
59.9291
60.0097
60.0718
60.1414
-1.84067
-1.73076
-1.7787
-1.50493
-1.43741
-1.22781
-1.0507
-0.862386
-0.670936
-0.478585
-0.286762
-0.0954443
59.6503
59.6516
59.6594
59.6745
59.6972
59.7275
59.7687
59.8122
59.8864
59.9264
60.0072
60.07
60.1407
-1.84713
-1.73674
-1.78426
-1.51011
-1.44217
-1.23196
-1.05429
-0.865346
-0.673251
-0.480243
-0.28776
-0.0957776
59.6503
59.6511
59.6585
59.6733
59.6958
59.7259
59.7669
59.8103
59.8842
59.9245
60.0048
60.0681
60.1395
-1.85174
-1.7407
-1.78799
-1.51362
-1.44539
-1.23476
-1.05672
-0.867353
-0.67482
-0.481367
-0.288436
-0.0960035
59.6558
59.6518
59.6581
59.6729
59.6952
59.7252
59.766
59.8095
59.8831
59.924
60.0035
60.0642
60.138
-1.85442
-1.74332
-1.78983
-1.5155
-1.44704
-1.23616
-1.05796
-0.868373
-0.675617
-0.481939
-0.28878
-0.0961176
59.7085
59.7077
59.7201
59.7424
59.7731
59.8105
59.8585
59.8933
59.9701
59.9784
60.0693
60.0776
60.1199
-1.63227
-1.52593
-1.57519
-1.32028
-1.2627
-1.07525
-0.917236
-0.751014
-0.582963
-0.414956
-0.24815
-0.0824049
59.7019
59.706
59.7194
59.7417
59.7725
59.81
59.858
59.893
59.9696
59.9798
60.0652
60.0768
60.1207
-1.63319
-1.52724
-1.57718
-1.32183
-1.26421
-1.07658
-0.918329
-0.75191
-0.583656
-0.415447
-0.248442
-0.0825021
59.6995
59.7043
59.718
59.7403
59.7711
59.8086
59.8566
59.892
59.9684
59.9801
60.0643
60.0766
60.1219
-1.63648
-1.53117
-1.58112
-1.3252
-1.26732
-1.07924
-0.920569
-0.753734
-0.585068
-0.41645
-0.249041
-0.082701
59.6956
59.7017
59.7159
59.7383
59.7691
59.8065
59.8544
59.8904
59.9666
59.98
60.0623
60.0766
60.1228
-1.64199
-1.53692
-1.58695
-1.33024
-1.27195
-1.0832
-0.923918
-0.756462
-0.587178
-0.41795
-0.249938
-0.0829991
59.6921
59.6988
59.7132
59.7356
59.7663
59.8037
59.8515
59.888
59.964
59.9794
60.0601
60.0764
60.1233
-1.6496
-1.54473
-1.59462
-1.33692
-1.27807
-1.08842
-0.928339
-0.760063
-0.589965
-0.419932
-0.251123
-0.0833932
59.6886
59.6955
59.71
59.7323
59.7629
59.8002
59.8479
59.885
59.9607
59.9781
60.0573
60.076
60.1235
-1.65915
-1.55428
-1.60399
-1.34512
-1.28557
-1.09484
-0.933776
-0.764493
-0.593394
-0.422371
-0.252583
-0.0838788
59.6849
59.6919
59.7064
59.7286
59.7589
59.796
59.8435
59.8812
59.9566
59.9761
60.0539
60.0751
60.1232
-1.67048
-1.56555
-1.61496
-1.35475
-1.29438
-1.10237
-0.940161
-0.769699
-0.597426
-0.425239
-0.2543
-0.08445
59.681
59.6881
59.7024
59.7243
59.7544
59.7912
59.8384
59.8766
59.9517
59.9732
60.0496
60.0736
60.1221
-1.6834
-1.57829
-1.62734
-1.36567
-1.30436
-1.11091
-0.947412
-0.775614
-0.602008
-0.428501
-0.256253
-0.0851
59.677
59.684
59.6981
59.7197
59.7494
59.7859
59.8326
59.8713
59.946
59.9693
60.044
60.0713
60.1202
-1.6977
-1.59232
-1.64096
-1.37771
-1.31537
-1.12036
-0.955432
-0.78216
-0.607082
-0.432113
-0.258416
-0.0858202
59.6729
59.6798
59.6936
59.7148
59.744
59.78
59.8262
59.8652
59.9394
59.9641
60.0371
60.0676
60.117
-1.71314
-1.60743
-1.65562
-1.3907
-1.32726
-1.13056
-0.964109
-0.789249
-0.612579
-0.436028
-0.260761