/*--------------------------------*- C++ -*----------------------------------*\
| =========                 |                                                 |
| \\      /  F ield         | OpenFOAM: The Open Source CFD Toolbox           |
|  \\    /   O peration     | Version:  2306                                  |
|   \\  /    A nd           | Website:  www.openfoam.com                      |
|    \\/     M anipulation  |                                                 |
\*---------------------------------------------------------------------------*/
FoamFile
{
    version     2.0;
    format      ascii;
    arch        "LSB;label=32;scalar=64";
    class       volScalarField;
    location    "3.9";
    object      p;
}
// * * * * * * * * * * * * * * * * * * * * * * * * * * * * * * * * * * * * * //

dimensions      [0 2 -2 0 0 0 0];

internalField   nonuniform List<scalar> 
288632
(
62.7373
62.7289
62.7406
62.7645
62.7975
62.8372
62.8888
62.9261
63.0005
63.0149
63.1016
63.1111
63.1458
-1.91457
-1.80108
-1.82974
-1.57391
-1.50119
-1.28831
-1.11161
-0.917253
-0.716778
-0.513262
-0.30847
-0.102987
62.7304
62.7275
62.74
62.764
62.7972
62.837
62.8886
62.9263
63.0007
63.0157
63.1017
63.1109
63.1464
-1.91524
-1.80197
-1.83128
-1.5751
-1.50238
-1.28941
-1.11252
-0.918002
-0.717369
-0.513687
-0.308726
-0.103073
62.7283
62.726
62.7389
62.7629
62.7962
62.8362
62.888
62.9262
63.0007
63.017
63.1025
63.1121
63.1483
-1.91775
-1.80499
-1.83434
-1.57777
-1.50489
-1.29159
-1.11439
-0.919546
-0.718578
-0.514553
-0.309247
-0.103247
62.7246
62.7236
62.7371
62.7613
62.7948
62.835
62.887
62.9259
63.0006
63.0186
63.1034
63.1143
63.1508
-1.92199
-1.80937
-1.83888
-1.58174
-1.50864
-1.29483
-1.11718
-0.921855
-0.720384
-0.515848
-0.310026
-0.103507
62.7216
62.7211
62.7349
62.7593
62.7929
62.8334
62.8855
62.9254
63.0004
63.0206
63.1048
63.1171
63.154
-1.92784
-1.81533
-1.84484
-1.58701
-1.51358
-1.29909
-1.12086
-0.924896
-0.722763
-0.517554
-0.311052
-0.10385
62.7184
62.7183
62.7323
62.7568
62.7906
62.8314
62.8838
62.9248
63.0002
63.0229
63.1066
63.1207
63.158
-1.93518
-1.82263
-1.85211
-1.59346
-1.51963
-1.30431
-1.12537
-0.928627
-0.725682
-0.519647
-0.312311
-0.104271
62.7152
62.7153
62.7294
62.754
62.7879
62.829
62.8817
62.924
63
63.0256
63.1091
63.125
63.1628
-1.94389
-1.83122
-1.8606
-1.60103
-1.52671
-1.31042
-1.13065
-0.932996
-0.729102
-0.5221
-0.313788
-0.104764
62.7119
62.7121
62.7262
62.7509
62.7849
62.8263
62.8793
62.9231
62.9999
63.0286
63.1121
63.1302
63.1685
-1.95381
-1.84091
-1.87015
-1.60959
-1.5347
-1.31732
-1.13662
-0.93794
-0.732973
-0.524878
-0.31546
-0.105323
62.7085
62.7088
62.7229
62.7475
62.7816
62.8233
62.8768
62.9221
62.9998
63.0319
63.1158
63.1363
63.1753
-1.96479
-1.85159
-1.88064
-1.61899
-1.54348
-1.32492
-1.1432
-0.943387
-0.737241
-0.527942
-0.317304
-0.10594
62.7051
62.7053
62.7193
62.744
62.7781
62.8201
62.874
62.921
62.9997
63.0357
63.1204
63.1435
63.1834
-1.97662
-1.86305
-1.89188
-1.62911
-1.55292
-1.3331
-1.15028
-0.949258
-0.741842
-0.531246
-0.319294
-0.106606
62.7016
62.7018
62.7157
62.7402
62.7744
62.8167
62.8711
62.9199
62.9999
63.0398
63.1259
63.1519
63.1928
-1.98912
-1.87511
-1.90371
-1.63977
-1.56288
-1.34174
-1.15776
-0.955464
-0.746709
-0.534742
-0.3214
-0.10731
62.6982
62.6983
62.712
62.7365
62.7706
62.8132
62.8681
62.9189
63.0002
63.0446
63.1324
63.1615
63.2037
-2.00208
-1.88758
-1.91593
-1.65081
-1.5732
-1.35069
-1.16553
-0.96191
-0.751767
-0.538377
-0.323591
-0.108043
62.6948
62.6948
62.7084
62.7327
62.7667
62.8096
62.8652
62.9179
63.0008
63.0499
63.1399
63.1726
63.2163
-2.0153
-1.90025
-1.92836
-1.66205
-1.58371
-1.35983
-1.17346
-0.968497
-0.756939
-0.542095
-0.325832
-0.108793
62.6916
62.6914
62.7048
62.7289
62.7629
62.8061
62.8622
62.917
63.0017
63.0557
63.1487
63.1851
63.2307
-2.02855
-1.91293
-1.94078
-1.67331
-1.59425
-1.369
-1.18143
-0.975121
-0.762142
-0.545837
-0.328089
-0.109549
62.6885
62.6882
62.7014
62.7253
62.7592
62.8026
62.8594
62.9163
63.0029
63.0621
63.1586
63.199
63.2467
-2.04163
-1.92541
-1.953
-1.68442
-1.60465
-1.37806
-1.1893
-0.981674
-0.767293
-0.549543
-0.330324
-0.110298
62.6857
62.6852
62.6981
62.7218
62.7556
62.7993
62.8568
62.9158
63.0044
63.069
63.1696
63.2142
63.2644
-2.05433
-1.93749
-1.96483
-1.69519
-1.61474
-1.38687
-1.19696
-0.988052
-0.772308
-0.553154
-0.332503
-0.111027
62.6831
62.6825
62.6951
62.7186
62.7523
62.7961
62.8544
62.9155
63.0062
63.0762
63.1815
63.2304
63.2834
-2.06645
-1.94898
-1.97608
-1.70546
-1.62436
-1.39527
-1.20428
-0.994147
-0.777105
-0.556608
-0.334588
-0.111726
62.6809
62.6801
62.6924
62.7156
62.7492
62.7933
62.8522
62.9155
63.0083
63.0836
63.194
63.2472
63.3034
-2.0778
-1.9597
-1.98656
-1.71505
-1.63335
-1.40313
-1.21113
-0.99986
-0.781603
-0.559849
-0.336544
-0.112382
62.6791
62.678
62.69
62.713
62.7464
62.7907
62.8502
62.9156
63.0104
63.0909
63.2066
63.2642
63.3237
-2.08821
-1.9695
-1.99612
-1.72382
-1.64157
-1.41033
-1.21741
-1.00509
-0.785726
-0.56282
-0.338338
-0.112983
62.6778
62.6764
62.688
62.7107
62.744
62.7885
62.8486
62.9158
63.0126
63.0979
63.2188
63.2808
63.3437
-2.09752
-1.9782
-2.00459
-1.73161
-1.64888
-1.41673
-1.223
-1.00976
-0.789404
-0.565472
-0.33994
-0.113521
62.6772
62.6751
62.6863
62.7087
62.742
62.7866
62.8472
62.9162
63.0147
63.1044
63.2302
63.2963
63.3626
-2.1056
-1.98573
-2.01186
-1.73834
-1.65516
-1.42225
-1.22781
-1.01378
-0.792573
-0.567757
-0.341321
-0.113984
62.6769
62.6743
62.6851
62.7072
62.7403
62.7851
62.8462
62.9165
63.0166
63.1099
63.2401
63.31
63.3793
-2.11234
-1.99192
-2.01779
-1.74385
-1.66031
-1.42677
-1.23176
-1.01708
-0.795179
-0.569636
-0.342456
-0.114364
62.6787
62.6741
62.6842
62.7061
62.7391
62.784
62.8454
62.9169
63.0181
63.1143
63.2481
63.3212
63.3932
-2.11765
-1.99679
-2.02232
-1.74811
-1.66426
-1.43023
-1.23479
-1.01962
-0.797176
-0.571077
-0.343326
-0.114656
62.6786
62.6737
62.6835
62.7054
62.7383
62.7832
62.8448
62.9171
63.0193
63.1174
63.2534
63.3294
63.4034
-2.12144
-1.99998
-2.02536
-1.75099
-1.66694
-1.43256
-1.23684
-1.02133
-0.798528
-0.572052
-0.343915
-0.114853
62.6846
62.6744
62.6833
62.7051
62.738
62.7829
62.8447
62.9173
63.0199
63.1192
63.2566
63.3334
63.4095
-2.12362
-2.00218
-2.02687
-1.75255
-1.66834
-1.43372
-1.23789
-1.02221
-0.799217
-0.572548
-0.344214
-0.114952
62.7289
62.7257
62.7383
62.7621
62.7952
62.8349
62.8863
62.9237
62.9979
63.0127
63.0986
63.1085
63.1444
-1.92037
-1.80747
-1.83592
-1.57876
-1.50484
-1.29126
-1.11343
-0.918317
-0.717345
-0.513501
-0.308533
-0.102981
62.722
62.724
62.7378
62.7616
62.7948
62.8346
62.8862
62.9239
62.998
63.0143
63.0964
63.1084
63.1454
-1.92101
-1.80839
-1.8375
-1.57998
-1.50606
-1.29238
-1.11436
-0.919079
-0.717946
-0.513932
-0.308793
-0.103069
62.72
62.7225
62.7366
62.7606
62.7939
62.8338
62.8855
62.9238
62.998
63.0157
63.0968
63.1095
63.1473
-1.92355
-1.81147
-1.84062
-1.5827
-1.50862
-1.2946
-1.11626
-0.920645
-0.719172
-0.514811
-0.309321
-0.103245
62.7166
62.7201
62.7347
62.759
62.7924
62.8326
62.8844
62.9234
62.9978
63.0174
63.0974
63.1115
63.1499
-1.92785
-1.81593
-1.84525
-1.58673
-1.51242
-1.29789
-1.11909
-0.922987
-0.721003
-0.516123
-0.310111
-0.103509
62.7135
62.7176
62.7325
62.7569
62.7905
62.8309
62.883
62.9229
62.9976
63.0193
63.0985
63.1142
63.1531
-1.93379
-1.822
-1.85132
-1.5921
-1.51745
-1.30222
-1.12283
-0.926073
-0.723416
-0.517853
-0.311151
-0.103857
62.7103
62.7149
62.7299
62.7544
62.7881
62.8288
62.8811
62.9222
62.9972
63.0214
63.1002
63.1177
63.157
-1.94124
-1.82943
-1.85872
-1.59866
-1.5236
-1.30752
-1.12741
-0.92986
-0.726378
-0.519977
-0.312429
-0.104284
62.707
62.712
62.7269
62.7516
62.7854
62.8264
62.8789
62.9212
62.9969
63.0239
63.1024
63.1219
63.1617
-1.95007
-1.83818
-1.86736
-1.60637
-1.53079
-1.31373
-1.13277
-0.934295
-0.729849
-0.522465
-0.313927
-0.104784
62.7037
62.7088
62.7238
62.7484
62.7823
62.8236
62.8765
62.9202
62.9965
63.0266
63.1052
63.127
63.1674
-1.96013
-1.84805
-1.87709
-1.61507
-1.53892
-1.32075
-1.13884
-0.939315
-0.733778
-0.525285
-0.315624
-0.105352
62.7003
62.7054
62.7204
62.745
62.7789
62.8205
62.8737
62.9189
62.9962
63.0295
63.1087
63.133
63.174
-1.97126
-1.85892
-1.88776
-1.62464
-1.54785
-1.32847
-1.14552
-0.944849
-0.738112
-0.528395
-0.317496
-0.105978
62.6968
62.7019
62.7168
62.7414
62.7753
62.8171
62.8708
62.9176
62.9959
63.0328
63.1128
63.14
63.1819
-1.98326
-1.87058
-1.89922
-1.63493
-1.55746
-1.33679
-1.15272
-0.950813
-0.742786
-0.53175
-0.319517
-0.106653
62.6933
62.6984
62.7131
62.7376
62.7715
62.8136
62.8677
62.9162
62.9957
63.0365
63.1178
63.1481
63.191
-1.99593
-1.88286
-1.91126
-1.64578
-1.56759
-1.34557
-1.16032
-0.957121
-0.747731
-0.535302
-0.321656
-0.107369
62.6899
62.6949
62.7094
62.7337
62.7677
62.81
62.8645
62.9148
62.9956
63.0406
63.1236
63.1573
63.2016
-2.00907
-1.89555
-1.92371
-1.65702
-1.57809
-1.35468
-1.16822
-0.963675
-0.752872
-0.538996
-0.323882
-0.108114
62.6865
62.6914
62.7057
62.7299
62.7637
62.8062
62.8613
62.9135
62.9958
63.0453
63.1304
63.1679
63.2138
-2.02247
-1.90845
-1.93636
-1.66846
-1.58879
-1.36398
-1.17629
-0.970374
-0.75813
-0.542775
-0.32616
-0.108877
62.6833
62.688
62.7021
62.7261
62.7598
62.8025
62.8581
62.9122
62.9962
63.0504
63.1383
63.1799
63.2277
-2.0359
-1.92135
-1.94901
-1.67992
-1.59951
-1.37332
-1.1844
-0.977112
-0.763422
-0.546581
-0.328455
-0.109645
62.6802
62.6847
62.6987
62.7224
62.756
62.7989
62.8551
62.9111
62.9969
63.0559
63.1473
63.1932
63.2433
-2.04915
-1.93404
-1.96146
-1.69123
-1.6101
-1.38254
-1.19241
-0.98378
-0.768662
-0.550351
-0.330729
-0.110407
62.6773
62.6817
62.6954
62.7188
62.7523
62.7954
62.8522
62.9102
62.9979
63.0619
63.1573
63.2077
63.2604
-2.06201
-1.94632
-1.9735
-1.70219
-1.62038
-1.3915
-1.20021
-0.990271
-0.773766
-0.554025
-0.332946
-0.111149
62.6747
62.6789
62.6923
62.7155
62.7488
62.7921
62.8495
62.9095
62.9992
63.0682
63.1681
63.2233
63.279
-2.07429
-1.95801
-1.98495
-1.71264
-1.63017
-1.40006
-1.20766
-0.996477
-0.778649
-0.557541
-0.335068
-0.111861
62.6725
62.6765
62.6896
62.7125
62.7456
62.789
62.847
62.909
63.0007
63.0746
63.1795
63.2395
63.2985
-2.08578
-1.9689
-1.99562
-1.7224
-1.63933
-1.40806
-1.21464
-1.00229
-0.783229
-0.56084
-0.33706
-0.112528
62.6707
62.6744
62.6872
62.7098
62.7428
62.7863
62.8448
62.9087
63.0023
63.081
63.1911
63.2559
63.3184
-2.09632
-1.97886
-2.00534
-1.73132
-1.6477
-1.41539
-1.22103
-1.00763
-0.787428
-0.563866
-0.338887
-0.113141
62.6694
62.6728
62.6851
62.7074
62.7403
62.7839
62.8429
62.9085
63.004
63.0871
63.2023
63.2719
63.338
-2.10574
-1.98771
-2.01396
-1.73926
-1.65514
-1.42192
-1.22672
-1.01238
-0.791174
-0.566567
-0.340519
-0.113688
62.6688
62.6716
62.6834
62.7055
62.7382
62.7819
62.8413
62.9085
63.0057
63.0927
63.2128
63.2869
63.3564
-2.11391
-1.99536
-2.02136
-1.7461
-1.66154
-1.42753
-1.23162
-1.01647
-0.794402
-0.568895
-0.341925
-0.11416
62.6685
62.6707
62.6821
62.7039
62.7365
62.7803
62.8401
62.9086
63.0072
63.0976
63.2219
63.3001
63.3729
-2.12073
-2.00164
-2.02739
-1.75171
-1.66678
-1.43214
-1.23565
-1.01984
-0.797057
-0.570809
-0.343082
-0.114548
62.6702
62.6705
62.6812
62.7028
62.7352
62.7791
62.8392
62.9087
63.0085
63.1014
63.2292
63.3109
63.3865
-2.1261
-2.00658
-2.03199
-1.75604
-1.67081
-1.43566
-1.23874
-1.02242
-0.799092
-0.572277
-0.343969
-0.114845
62.6701
62.6701
62.6805
62.702
62.7343
62.7782
62.8385
62.9088
63.0094
63.1041
63.234
63.3187
63.3964
-2.12993
-2.00982
-2.03508
-1.75897
-1.67353
-1.43803
-1.24083
-1.02417
-0.80047
-0.573271
-0.344569
-0.115046
62.676
62.6709
62.6804
62.7018
62.734
62.7779
62.8383
62.9089
63.0099
63.1057
63.2373
63.321
63.4021
-2.13213
-2.01204
-2.03662
-1.76055
-1.67495
-1.43921
-1.24189
-1.02506
-0.80117
-0.573775
-0.344873
-0.115147
62.7233
62.7208
62.7335
62.7573
62.7903
62.8298
62.8811
62.9186
62.9925
63.0081
63.0932
63.104
63.141
-1.93364
-1.82118
-1.848
-1.58832
-1.51185
-1.29671
-1.11673
-0.920148
-0.718218
-0.513775
-0.30852
-0.102912
62.7167
62.719
62.733
62.7568
62.7899
62.8295
62.8809
62.9187
62.9925
63.0098
63.0905
63.1038
63.142
-1.93433
-1.82215
-1.84963
-1.58959
-1.51311
-1.29786
-1.11768
-0.920931
-0.718836
-0.514218
-0.308786
-0.103001
62.7146
62.7175
62.7318
62.7557
62.7889
62.8287
62.8802
62.9185
62.9924
63.0111
63.091
63.1048
63.144
-1.93696
-1.82534
-1.85286
-1.59239
-1.51575
-1.30015
-1.11964
-0.922542
-0.720096
-0.51512
-0.309328
-0.103183
62.7109
62.7152
62.73
62.7541
62.7874
62.8274
62.879
62.9181
62.9921
63.0126
63.0914
63.1066
63.1465
-1.9414
-1.82997
-1.85765
-1.59657
-1.51968
-1.30354
-1.12256
-0.924952
-0.721979
-0.516469
-0.310139
-0.103454
62.7077
62.7127
62.7277
62.752
62.7854
62.8256
62.8774
62.9173
62.9916
63.0143
63.0924
63.1091
63.1496
-1.94754
-1.83627
-1.86394
-1.60212
-1.52487
-1.30801
-1.12641
-0.928127
-0.72446
-0.518247
-0.311208
-0.103811
62.7044
62.71
62.7251
62.7495
62.783
62.8234
62.8754
62.9164
62.991
63.0161
63.0937
63.1122
63.1532
-1.95524
-1.84398
-1.87161
-1.60891
-1.53122
-1.31348
-1.13113
-0.932026
-0.727508
-0.520431
-0.312522
-0.10425
62.7012
62.7069
62.7221
62.7466
62.7801
62.8208
62.873
62.9152
62.9903
63.0181
63.0954
63.116
63.1576
-1.96437
-1.85305
-1.88057
-1.61688
-1.53866
-1.31989
-1.13665
-0.936595
-0.73108
-0.522992
-0.314063
-0.104765
62.6978
62.7037
62.7189
62.7433
62.7769
62.8178
62.8703
62.9137
62.9895
63.0202
63.0975
63.1205
63.1627
-1.97477
-1.86328
-1.89065
-1.62588
-1.54706
-1.32713
-1.14291
-0.941768
-0.735127
-0.525894
-0.315809
-0.105348
62.6944
62.7003
62.7154
62.7398
62.7734
62.8145
62.8672
62.9121
62.9887
63.0225
63.1001
63.1257
63.1687
-1.98625
-1.87455
-1.90172
-1.63579
-1.55629
-1.33512
-1.14981
-0.947474
-0.739593
-0.529098
-0.317738
-0.105993
62.6909
62.6967
62.7118
62.7361
62.7697
62.811
62.864
62.9103
62.9877
63.025
63.1031
63.1319
63.1756
-1.99864
-1.88664
-1.91359
-1.64644
-1.56623
-1.34371
-1.15724
-0.95363
-0.744413
-0.532557
-0.319821
-0.10669
62.6874
62.6932
62.7081
62.7322
62.7657
62.8072
62.8605
62.9083
62.9868
63.0276
63.1068
63.1387
63.1837
-2.01172
-1.89936
-1.92608
-1.65767
-1.57672
-1.3528
-1.1651
-0.960142
-0.749516
-0.536221
-0.322028
-0.107428
62.6839
62.6896
62.7043
62.7282
62.7616
62.8032
62.8569
62.9062
62.986
63.0306
63.1111
63.1465
63.193
-2.02528
-1.91251
-1.93899
-1.6693
-1.58758
-1.36222
-1.17327
-0.966914
-0.754826
-0.540034
-0.324326
-0.108197
62.6805
62.686
62.7005
62.7242
62.7575
62.7992
62.8532
62.9041
62.9852
63.0338
63.1162
63.1552
63.2036
-2.0391
-1.92587
-1.9521
-1.68115
-1.59866
-1.37185
-1.18161
-0.97384
-0.760259
-0.543939
-0.326679
-0.108985
62.6772
62.6826
62.6968
62.7203
62.7533
62.7951
62.8495
62.9021
62.9846
63.0373
63.1221
63.1651
63.2156
-2.05294
-1.93922
-1.96522
-1.69303
-1.60978
-1.38151
-1.19
-0.98081
-0.765731
-0.547873
-0.329051
-0.109779
62.6741
62.6793
62.6933
62.7165
62.7493
62.7911
62.8459
62.9001
62.9842
63.0411
63.1289
63.1761
63.2292
-2.0666
-1.95236
-1.97812
-1.70473
-1.62075
-1.39107
-1.1983
-0.987713
-0.771154
-0.551773
-0.331403
-0.110567
62.6712
62.6762
62.6899
62.7128
62.7454
62.7873
62.8424
62.8983
62.9841
63.0452
63.1366
63.1881
63.2441
-2.07985
-1.96507
-1.9906
-1.71609
-1.6314
-1.40035
-1.20638
-0.994435
-0.776438
-0.555576
-0.333698
-0.111336
62.6686
62.6734
62.6868
62.7094
62.7417
62.7836
62.8392
62.8967
62.9842
63.0496
63.145
63.201
63.2602
-2.09248
-1.97716
-2.00246
-1.72691
-1.64155
-1.40922
-1.2141
-1.00087
-0.781496
-0.559218
-0.335896
-0.112073
62.6663
62.6709
62.684
62.7062
62.7383
62.7802
62.8361
62.8953
62.9845
63.0541
63.1539
63.2144
63.2773
-2.1043
-1.98843
-2.01351
-1.73702
-1.65105
-1.41752
-1.22134
-1.0069
-0.786243
-0.562636
-0.33796
-0.112765
62.6645
62.6688
62.6815
62.7034
62.7353
62.7772
62.8334
62.8941
62.985
63.0586
63.163
63.2281
63.2947
-2.11514
-1.99872
-2.02358
-1.74626
-1.65972
-1.42512
-1.22796
-1.01242
-0.790596
-0.565774
-0.339854
-0.1134
62.6632
62.6671
62.6794
62.7009
62.7326
62.7745
62.8311
62.8932
62.9856
63.063
63.172
63.2414
63.3119
-2.12483
-2.00786
-2.03251
-1.75447
-1.66744
-1.43189
-1.23387
-1.01736
-0.794482
-0.568575
-0.341547
-0.113968
62.6625
62.6659
62.6776
62.6989
62.7303
62.7722
62.8291
62.8924
62.9863
63.067
63.1803
63.2539
63.3281
-2.13322
-2.01576
-2.04016
-1.76155
-1.67408
-1.43772
-1.23896
-1.0216
-0.797831
-0.57099
-0.343006
-0.114458
62.6622
62.665
62.6763
62.6972
62.7285
62.7703
62.8274
62.8919
62.987
63.0704
63.1875
63.2648
63.3425
-2.14022
-2.02224
-2.0464
-1.76736
-1.67952
-1.44249
-1.24313
-1.0251
-0.800586
-0.572977
-0.344207
-0.114861
62.6639
62.6648
62.6754
62.696
62.7271
62.769
62.8262
62.8915
62.9876
63.0732
63.1933
63.2738
63.3543
-2.14573
-2.02733
-2.05117
-1.77184
-1.68369
-1.44615
-1.24634
-1.02778
-0.802698
-0.5745
-0.345127
-0.115169
62.6638
62.6644
62.6747
62.6952
62.7262
62.768
62.8254
62.8913
62.9881
63.0752
63.1969
63.2804
63.3629
-2.14966
-2.03068
-2.05436
-1.77487
-1.68651
-1.44861
-1.24851
-1.02959
-0.804129
-0.575532
-0.345751
-0.115378
62.6697
62.6652
62.6745
62.6949
62.7258
62.7677
62.8251
62.8912
62.9884
63.0764
63.1993
63.2841
63.3676
-2.15192
-2.03296
-2.05595
-1.7765
-1.68798
-1.44983
-1.24961
-1.03052
-0.804856
-0.576055
-0.346066
-0.115483
62.7147
62.7134
62.7264
62.7502
62.7829
62.8222
62.8731
62.9108
62.9842
63.0009
63.0847
63.0973
63.1348
-1.95495
-1.84157
-1.86594
-1.60255
-1.52221
-1.30466
-1.12146
-0.922714
-0.719365
-0.514055
-0.308408
-0.102771
62.7082
62.7116
62.7258
62.7496
62.7825
62.8219
62.8729
62.9108
62.9841
63.0026
63.0817
63.0969
63.1359
-1.9557
-1.84262
-1.86765
-1.60389
-1.52353
-1.30586
-1.12245
-0.923531
-0.720008
-0.514515
-0.308684
-0.102864
62.706
62.7101
62.7246
62.7485
62.7815
62.821
62.8721
62.9105
62.9839
63.0037
63.0821
63.0978
63.1379
-1.95849
-1.84599
-1.87106
-1.60684
-1.5263
-1.30825
-1.12449
-0.925209
-0.721319
-0.515453
-0.309247
-0.103052
62.7022
62.7078
62.7228
62.7469
62.7799
62.8196
62.8707
62.9098
62.9833
63.005
63.0821
63.0994
63.1402
-1.96317
-1.85089
-1.8761
-1.61123
-1.53041
-1.3118
-1.12754
-0.92772
-0.723279
-0.516856
-0.31009
-0.103334
62.699
62.7053
62.7205
62.7447
62.7778
62.8177
62.869
62.9089
62.9826
63.0063
63.0825
63.1015
63.1429
-1.96964
-1.85753
-1.88273
-1.61705
-1.53585
-1.31647
-1.13156
-0.93103
-0.725863
-0.518706
-0.311203
-0.103705
62.6958
62.7025
62.7179
62.7421
62.7752
62.8153
62.8667
62.9076
62.9816
63.0077
63.0832
63.1041
63.1461
-1.97774
-1.86566
-1.89081
-1.62419
-1.54251
-1.3222
-1.13649
-0.935097
-0.729039
-0.52098
-0.31257
-0.104162
62.6925
62.6994
62.7148
62.7391
62.7722
62.8124
62.864
62.9059
62.9804
63.0091
63.0841
63.1072
63.1498
-1.98734
-1.87523
-1.90025
-1.63256
-1.55031
-1.32891
-1.14227
-0.939866
-0.732764
-0.523649
-0.314176
-0.104699
62.6891
62.6961
62.7115
62.7357
62.7689
62.8092
62.8609
62.904
62.9789
63.0103
63.0852
63.1108
63.154
-1.99828
-1.88601
-1.91088
-1.64202
-1.55912
-1.33651
-1.14882
-0.945272
-0.736989
-0.526677
-0.315998
-0.105308
62.6856
62.6926
62.708
62.7321
62.7651
62.8056
62.8575
62.9017
62.9773
63.0115
63.0865
63.1149
63.1587
-2.01036
-1.89788
-1.92255
-1.65243
-1.56882
-1.34488
-1.15604
-0.951239
-0.741655
-0.530023
-0.318011
-0.105981
62.6821
62.689
62.7043
62.7282
62.7612
62.8017
62.8537
62.8991
62.9755
63.0127
63.0879
63.1194
63.1641
-2.02337
-1.91062
-1.93506
-1.66363
-1.57926
-1.3539
-1.16383
-0.957682
-0.746697
-0.533639
-0.320188
-0.106709
62.6786
62.6854
62.7004
62.7241
62.7569
62.7975
62.8496
62.8963
62.9735
63.0137
63.0895
63.1243
63.1702
-2.03711
-1.92402
-1.94823
-1.67545
-1.59028
-1.36344
-1.17208
-0.964505
-0.752039
-0.537473
-0.322497
-0.107481
62.675
62.6817
62.6965
62.72
62.7526
62.7931
62.8454
62.8932
62.9713
63.0147
63.0913
63.1296
63.1769
-2.05135
-1.93787
-1.96183
-1.68769
-1.60172
-1.37335
-1.18065
-0.971607
-0.757604
-0.541468
-0.324904
-0.108287
62.6716
62.6781
62.6927
62.7158
62.7481
62.7886
62.841
62.89
62.9692
63.0156
63.0936
63.1355
63.1845
-2.06584
-1.95193
-1.97566
-1.70015
-1.61338
-1.38347
-1.18942
-0.978878
-0.763304
-0.545562
-0.327371
-0.109113
62.6682
62.6746
62.6889
62.7117
62.7437
62.7841
62.8365
62.8867
62.967
63.0165
63.0963
63.1419
63.1929
-2.08036
-1.96598
-1.98948
-1.71265
-1.62508
-1.39364
-1.19824
-0.986202
-0.76905
-0.549692
-0.329861
-0.109947
62.665
62.6712
62.6852
62.7077
62.7393
62.7795
62.8321
62.8834
62.9649
63.0176
63.0995
63.1491
63.2025
-2.09467
-1.9798
-2.00308
-1.72497
-1.63664
-1.4037
-1.20698
-0.993461
-0.77475
-0.55379
-0.332332
-0.110775
62.6621
62.6681
62.6817
62.7038
62.7351
62.7752
62.8278
62.8802
62.963
63.0187
63.1033
63.157
63.213
-2.10854
-1.99316
-2.01623
-1.73693
-1.64786
-1.41348
-1.21548
-1.00054
-0.780309
-0.557789
-0.334745
-0.111584
62.6595
62.6652
62.6785
62.7002
62.7311
62.771
62.8237
62.8772
62.9612
63.02
63.1076
63.1655
63.2244
-2.12176
-2.00585
-2.02872
-1.74832
-1.65856
-1.42283
-1.22362
-1.00731
-0.785634
-0.561622
-0.337059
-0.112359
62.6572
62.6627
62.6756
62.6969
62.7274
62.7671
62.8198
62.8744
62.9597
63.0215
63.1123
63.1745
63.2366
-2.13412
-2.01768
-2.04036
-1.75895
-1.66857
-1.43158
-1.23124
-1.01367
-0.790635
-0.565223
-0.339233
-0.113089
62.6553
62.6605
62.673
62.6939
62.724
62.7635
62.8163
62.8719
62.9584
63.023
63.1173
63.1836
63.2491
-2.14543
-2.02848
-2.05096
-1.76868
-1.67772
-1.43959
-1.23823
-1.0195
-0.795225
-0.56853
-0.341231
-0.113759
62.6539
62.6588
62.6708
62.6913
62.7211
62.7604
62.8132
62.8698
62.9573
63.0245
63.1223
63.1925
63.2613
-2.15554
-2.03805
-2.06035
-1.77732
-1.68585
-1.44673
-1.24447
-1.0247
-0.799324
-0.571484
-0.343016
-0.114358
62.6532
62.6575
62.669
62.6891
62.7186
62.7577
62.8106
62.8679
62.9565
63.0259
63.1269
63.2007
63.2728
-2.16429
-2.04632
-2.0684
-1.78477
-1.69285
-1.45288
-1.24983
-1.02918
-0.802859
-0.574033
-0.344556
-0.114875
62.6528
62.6566
62.6676
62.6873
62.7165
62.7555
62.8084
62.8665
62.9559
63.0272
63.1308
63.2078
63.2828
-2.17158
-2.0531
-2.07496
-1.79088
-1.69859
-1.45792
-1.25425
-1.03287
-0.805767
-0.576131
-0.345824
-0.115301
62.6545
62.6564
62.6666
62.686
62.715
62.7539
62.8067
62.8653
62.9554
63.0281
63.1337
63.2134
63.2909
-2.17731
-2.05842
-2.07997
-1.79558
-1.70299
-1.46178
-1.25763
-1.0357
-0.807998
-0.57774
-0.346797
-0.115627
62.6544
62.6559
62.6658
62.6851
62.714
62.7527
62.8056
62.8646
62.9551
63.0288
63.1353
63.2173
63.2966
-2.18139
-2.06192
-2.08333
-1.79877
-1.70597
-1.46437
-1.25992
-1.03762
-0.809509
-0.57883
-0.347455
-0.115848
62.6602
62.6567
62.6656
62.6848
62.7136
62.7523
62.8051
62.8643
62.955
63.0294
63.1361
63.219
63.2994
-2.18373
-2.06427
-2.085
-1.80048
-1.70751
-1.46566
-1.26108
-1.0386
-0.810276
-0.579383
-0.347789
-0.115959
62.7049
62.7041
62.7172
62.7407
62.7731
62.8121
62.8625
62.9002
62.9731
62.991
63.0735
63.0879
63.126
-1.9842
-1.86896
-1.88983
-1.62144
-1.53583
-1.31495
-1.12745
-0.925886
-0.720666
-0.514246
-0.308139
-0.102539
62.6983
62.7024
62.7166
62.7402
62.7727
62.8117
62.8622
62.9002
62.9729
62.9926
63.0703
63.0875
63.1271
-1.98504
-1.87013
-1.89165
-1.62287
-1.53724
-1.31622
-1.12849
-0.92675
-0.721341
-0.514728
-0.308427
-0.102636
62.696
62.7009
62.7154
62.739
62.7716
62.8107
62.8612
62.8997
62.9725
62.9936
63.0704
63.0881
63.1289
-1.98805
-1.87374
-1.89529
-1.62601
-1.54017
-1.31875
-1.13064
-0.928519
-0.72272
-0.515713
-0.309018
-0.102833
62.6923
62.6985
62.7135
62.7373
62.7699
62.8091
62.8597
62.8988
62.9717
62.9946
63.07
63.0893
63.1309
-1.99308
-1.879
-1.90069
-1.63068
-1.54454
-1.32251
-1.13386
-0.931164
-0.724782
-0.517188
-0.309904
-0.103129
62.6891
62.6959
62.7112
62.735
62.7677
62.8071
62.8577
62.8975
62.9705
62.9954
63.0698
63.0909
63.1332
-2
-1.88612
-1.90777
-1.63688
-1.55032
-1.32746
-1.13811
-0.934654
-0.727503
-0.519134
-0.311074
-0.103519
62.6858
62.693
62.7084
62.7323
62.765
62.8044
62.8551
62.8958
62.969
62.9961
63.0697
63.0928
63.1356
-2.00867
-1.89482
-1.91641
-1.64448
-1.55739
-1.33353
-1.14332
-0.938945
-0.73085
-0.52153
-0.312513
-0.104
62.6825
62.6898
62.7053
62.7292
62.7618
62.8013
62.852
62.8936
62.9671
62.9965
63.0695
63.095
63.1383
-2.01894
-1.90506
-1.92651
-1.6534
-1.56568
-1.34066
-1.14944
-0.943982
-0.734781
-0.524344
-0.314205
-0.104565
62.6791
62.6865
62.7019
62.7257
62.7582
62.7977
62.8485
62.8909
62.9648
62.9966
63.0692
63.0973
63.1412
-2.03062
-1.9166
-1.93788
-1.66348
-1.57505
-1.34872
-1.15638
-0.949698
-0.739244
-0.52754
-0.316128
-0.105208
62.6756
62.6829
62.6983
62.7219
62.7542
62.7937
62.8444
62.8878
62.9621
62.9964
63.0686
63.0996
63.1441
-2.04352
-1.9293
-1.95037
-1.67458
-1.58538
-1.35762
-1.16404
-0.956015
-0.74418
-0.531076
-0.318255
-0.105919
62.672
62.6793
62.6944
62.7178
62.7499
62.7894
62.84
62.8842
62.9591
62.9957
63.0676
63.1016
63.1471
-2.05742
-1.94292
-1.96377
-1.68653
-1.5965
-1.36722
-1.17232
-0.962844
-0.749519
-0.534903
-0.320559
-0.106689
62.6684
62.6755
62.6905
62.7136
62.7454
62.7847
62.8352
62.8802
62.9556
62.9944
63.0662
63.1035
63.15
-2.07208
-1.95725
-1.97786
-1.69914
-1.60825
-1.37738
-1.18109
-0.970087
-0.755185
-0.538966
-0.323005
-0.107508
62.6648
62.6718
62.6865
62.7092
62.7407
62.7797
62.8301
62.8758
62.9517
62.9926
63.0645
63.1049
63.1526
-2.08726
-1.97205
-1.99242
-1.7122
-1.62045
-1.38794
-1.19022
-0.977635
-0.761094
-0.543206
-0.325559
-0.108363
62.6613
62.6681
62.6824
62.7048
62.7358
62.7746
62.8247
62.871
62.9476
62.9903
63.0625
63.106
63.1552
-2.1027
-1.98707
-2.00722
-1.72551
-1.6329
-1.39874
-1.19956
-0.985373
-0.767155
-0.547557
-0.328181
-0.109241
62.6579
62.6645
62.6785
62.7004
62.731
62.7694
62.8192
62.8661
62.9433
62.9876
63.0603
63.1069
63.1578
-2.11815
-2.00208
-2.02202
-1.73886
-1.64541
-1.4096
-1.20897
-0.993177
-0.773274
-0.551952
-0.33083
-0.110128
62.6546
62.661
62.6747
62.6961
62.7262
62.7642
62.8137
62.861
62.9388
62.9845
63.058
63.1078
63.1605
-2.13337
-2.01682
-2.03656
-1.75203
-1.65776
-1.42035
-1.2183
-1.00092
-0.77935
-0.556319
-0.333463
-0.111011
62.6516
62.6578
62.6711
62.692
62.7216
62.7591
62.8083
62.856
62.9343
62.9813
63.0559
63.1086
63.1635
-2.14811
-2.03106
-2.05063
-1.76479
-1.66977
-1.43081
-1.2274
-1.00848
-0.785283
-0.560585
-0.336037
-0.111874
62.6489
62.6549
62.6677
62.6882
62.7172
62.7543
62.803
62.8511
62.93
62.9782
63.054
63.1097
63.1669
-2.16213
-2.04458
-2.06398
-1.77696
-1.68122
-1.44081
-1.2361
-1.01572
-0.790973
-0.564679
-0.338508
-0.112702
62.6466
62.6523
62.6646
62.6846
62.7131
62.7497
62.7981
62.8464
62.9259
62.9751
63.0524
63.111
63.1706
-2.17523
-2.05717
-2.07642
-1.78832
-1.69193
-1.45018
-1.24426
-1.02252
-0.796321
-0.568529
-0.340833
-0.113482
62.6447
62.65
62.6619
62.6814
62.7093
62.7455
62.7935
62.8421
62.922
62.9723
63.0511
63.1123
63.1744
-2.18721
-2.06865
-2.08774
-1.79871
-1.70172
-1.45876
-1.25175
-1.02876
-0.801234
-0.572068
-0.342971
-0.1142
62.6432
62.6482
62.6596
62.6786
62.706
62.7417
62.7894
62.8383
62.9186
62.9696
63.0499
63.1135
63.1779
-2.1979
-2.07883
-2.09776
-1.80793
-1.71044
-1.46641
-1.25843
-1.03433
-0.805624
-0.575232
-0.344883
-0.114842
62.6424
62.6469
62.6577
62.6762
62.7032
62.7385
62.7859
62.835
62.9155
62.9673
63.0487
63.1143
63.1808
-2.20714
-2.0876
-2.10635
-1.81588
-1.71793
-1.47299
-1.26419
-1.03914
-0.809412
-0.577963
-0.346534
-0.115396
62.642
62.646
62.6562
62.6743
62.7009
62.7359
62.783
62.8322
62.913
62.9652
63.0473
63.1146
63.1827
-2.21483
-2.09478
-2.11335
-1.82239
-1.72407
-1.47839
-1.26892
-1.0431
-0.812531
-0.580213
-0.347894
-0.115853
62.6437
62.6457
62.6552
62.6729
62.6992
62.7339
62.7808
62.8301
62.911
62.9636
63.0459
63.1142
63.1835
-2.22086
-2.10041
-2.11869
-1.82741
-1.72878
-1.48253
-1.27255
-1.04613
-0.814923
-0.581938
-0.348937
-0.116204
62.6436
62.6452
62.6544
62.672
62.698
62.7325
62.7793
62.8286
62.9095
62.9624
63.0442
63.1133
63.1834
-2.22515
-2.10411
-2.12226
-1.8308
-1.73197
-1.48531
-1.27501
-1.04819
-0.816545
-0.583108
-0.349645
-0.116441
62.6494
62.646
62.6542
62.6716
62.6976
62.732
62.7786
62.828
62.9087
62.9622
63.043
63.1084
63.1825
-2.2276
-2.10656
-2.12404
-1.83261
-1.73362
-1.48669
-1.27626
-1.04924
-0.817368
-0.583702
-0.350004
-0.116561
62.6934
62.6929
62.7059
62.7291
62.761
62.7994
62.8492
62.887
62.9592
62.9785
63.0595
63.0759
63.1145
-2.02159
-1.90346
-1.9197
-1.64493
-1.55259
-1.32738
-1.13449
-0.929492
-0.721958
-0.514222
-0.307632
-0.102188
62.6868
62.6912
62.7052
62.7285
62.7605
62.799
62.8488
62.8869
62.959
62.98
63.0562
63.0754
63.1156
-2.02254
-1.90478
-1.92167
-1.64647
-1.5541
-1.32873
-1.13561
-0.930411
-0.722673
-0.514731
-0.307936
-0.102289
62.6845
62.6897
62.704
62.7273
62.7593
62.7979
62.8477
62.8862
62.9583
62.9807
63.0561
63.0757
63.1172
-2.02584
-1.9087
-1.92561
-1.64985
-1.55725
-1.33143
-1.1379
-0.93229
-0.724135
-0.515775
-0.308561
-0.102497
62.6808
62.6872
62.7021
62.7255
62.7575
62.7962
62.846
62.885
62.9571
62.9812
63.0551
63.0766
63.1188
-2.03131
-1.91442
-1.93145
-1.65489
-1.56194
-1.33546
-1.14133
-0.935104
-0.726325
-0.517339
-0.3095
-0.10281
62.6775
62.6846
62.6997
62.7231
62.7552
62.7939
62.8437
62.8833
62.9555
62.9815
63.0542
63.0775
63.1204
-2.03884
-1.92215
-1.93912
-1.66157
-1.56814
-1.34076
-1.14586
-0.93882
-0.729218
-0.519406
-0.310741
-0.103225
62.6743
62.6816
62.6969
62.7203
62.7523
62.791
62.8407
62.881
62.9533
62.9813
63.053
63.0785
63.1219
-2.04825
-1.93159
-1.94849
-1.66976
-1.57574
-1.34727
-1.15143
-0.943393
-0.73278
-0.521952
-0.312271
-0.103735
62.6709
62.6784
62.6937
62.717
62.7488
62.7875
62.8372
62.8781
62.9506
62.9806
63.0515
63.0794
63.1233
-2.05938
-1.94269
-1.95943
-1.67937
-1.58465
-1.35491
-1.15798
-0.948767
-0.736968
-0.524948
-0.314071
-0.104337
62.6674
62.6749
62.6901
62.7133
62.745
62.7835
62.833
62.8746
62.9472
62.9793
63.0493
63.08
63.1243
-2.07205
-1.95521
-1.97176
-1.69025
-1.59474
-1.36357
-1.16541
-0.954875
-0.741731
-0.528355
-0.31612
-0.105021
62.6638
62.6713
62.6864
62.7093
62.7407
62.7791
62.8283
62.8705
62.9432
62.9771
63.0462
63.0797
63.1248
-2.08603
-1.96898
-1.9853
-1.70223
-1.60586
-1.37314
-1.17363
-0.961636
-0.747006
-0.532131
-0.318391
-0.10578
62.6602
62.6675
62.6824
62.705
62.736
62.7741
62.8231
62.8656
62.9386
62.974
63.042
63.0785
63.1242
-2.10108
-1.98374
-1.99984
-1.71513
-1.61786
-1.38347
-1.18252
-0.968957
-0.752722
-0.536225
-0.320854
-0.106604
62.6565
62.6637
62.6783
62.7005
62.7311
62.7688
62.8173
62.8601
62.9333
62.9697
63.0367
63.0758
63.1224
-2.11694
-1.99926
-2.01513
-1.72875
-1.63055
-1.39443
-1.19195
-0.976733
-0.758798
-0.540579
-0.323474
-0.107481
62.6529
62.6599