/*--------------------------------*- C++ -*----------------------------------*\
| =========                 |                                                 |
| \\      /  F ield         | OpenFOAM: The Open Source CFD Toolbox           |
|  \\    /   O peration     | Version:  2306                                  |
|   \\  /    A nd           | Website:  www.openfoam.com                      |
|    \\/     M anipulation  |                                                 |
\*---------------------------------------------------------------------------*/
FoamFile
{
    version     2.0;
    format      ascii;
    arch        "LSB;label=32;scalar=64";
    class       volScalarField;
    location    "4";
    object      p;
}
// * * * * * * * * * * * * * * * * * * * * * * * * * * * * * * * * * * * * * //

dimensions      [0 2 -2 0 0 0 0];

internalField   nonuniform List<scalar> 
288632
(
63.4618
63.4535
63.4653
63.4894
63.5228
63.5628
63.6149
63.6531
63.7264
63.7433
63.8277
63.8389
63.8729
-2.01308
-1.89641
-1.9176
-1.65697
-1.57593
-1.35371
-1.16838
-0.964286
-0.753587
-0.539658
-0.324338
-0.108281
63.4549
63.452
63.4648
63.489
63.5225
63.5626
63.6147
63.6533
63.7266
63.7441
63.8279
63.8389
63.8735
-2.01377
-1.8973
-1.91913
-1.65816
-1.57712
-1.3548
-1.16929
-0.965039
-0.754181
-0.540086
-0.324595
-0.108368
63.4528
63.4506
63.4637
63.4879
63.5216
63.5619
63.6142
63.6532
63.7267
63.7455
63.8289
63.8401
63.8755
-2.01627
-1.90031
-1.92218
-1.66081
-1.57963
-1.35699
-1.17117
-0.966589
-0.755397
-0.540958
-0.32512
-0.108543
63.4492
63.4483
63.4619
63.4864
63.5202
63.5608
63.6133
63.6531
63.7268
63.7473
63.83
63.8425
63.8782
-2.02048
-1.90467
-1.9267
-1.66477
-1.58337
-1.36023
-1.17397
-0.968908
-0.757213
-0.542262
-0.325905
-0.108806
63.4462
63.4458
63.4598
63.4845
63.5185
63.5593
63.612
63.6528
63.7268
63.7495
63.8317
63.8456
63.8817
-2.0263
-1.91059
-1.93264
-1.67002
-1.58832
-1.36449
-1.17765
-0.971963
-0.759607
-0.54398
-0.326939
-0.109152
63.4431
63.4431
63.4573
63.4821
63.5163
63.5574
63.6104
63.6523
63.7269
63.7521
63.8339
63.8494
63.8859
-2.03359
-1.91784
-1.93988
-1.67645
-1.59436
-1.36971
-1.18218
-0.975711
-0.762544
-0.546089
-0.32821
-0.109576
63.44
63.4402
63.4545
63.4794
63.5137
63.5552
63.6085
63.6518
63.727
63.755
63.8367
63.8541
63.8911
-2.04223
-1.92637
-1.94833
-1.68399
-1.60143
-1.37582
-1.18747
-0.9801
-0.765984
-0.54856
-0.329698
-0.110074
63.4368
63.4371
63.4515
63.4765
63.5109
63.5527
63.6064
63.6511
63.7272
63.7583
63.8402
63.8597
63.8973
-2.05207
-1.93599
-1.95783
-1.69251
-1.60942
-1.38272
-1.19346
-0.985067
-0.76988
-0.551359
-0.331384
-0.110638
63.4335
63.4339
63.4482
63.4732
63.5078
63.5499
63.6041
63.6504
63.7275
63.7621
63.8444
63.8663
63.9046
-2.06294
-1.94657
-1.96827
-1.70188
-1.61819
-1.39032
-1.20005
-0.990539
-0.774174
-0.554445
-0.333244
-0.111261
63.4302
63.4306
63.4448
63.4698
63.5044
63.547
63.6016
63.6496
63.7279
63.7663
63.8495
63.874
63.9131
-2.07465
-1.95793
-1.97945
-1.71194
-1.62763
-1.39849
-1.20715
-0.996437
-0.778803
-0.557774
-0.335251
-0.111933
63.4269
63.4272
63.4414
63.4663
63.501
63.5438
63.599
63.6488
63.7285
63.7709
63.8556
63.8829
63.9231
-2.08702
-1.96989
-1.99121
-1.72255
-1.63757
-1.40712
-1.21465
-1.00267
-0.7837
-0.561296
-0.337375
-0.112644
63.4236
63.4238
63.4378
63.4627
63.4974
63.5406
63.5963
63.6481
63.7293
63.7761
63.8627
63.8932
63.9346
-2.09984
-1.98224
-2.00336
-1.73353
-1.64787
-1.41607
-1.22243
-1.00915
-0.78879
-0.564958
-0.339584
-0.113383
63.4204
63.4205
63.4344
63.4591
63.4938
63.5373
63.5937
63.6475
63.7304
63.7819
63.8709
63.9048
63.9479
-2.11291
-1.99479
-2.0157
-1.7447
-1.65836
-1.4252
-1.23038
-1.01576
-0.793993
-0.568703
-0.341844
-0.114141
63.4172
63.4172
63.4309
63.4555
63.4902
63.534
63.5911
63.647
63.7318
63.7882
63.8803
63.9179
63.9628
-2.12602
-2.00734
-2.02803
-1.7559
-1.66888
-1.43436
-1.23837
-1.02241
-0.799227
-0.572474
-0.344119
-0.114903
63.4143
63.4142
63.4277
63.4521
63.4867
63.5308
63.5886
63.6466
63.7335
63.7951
63.8908
63.9324
63.9795
-2.13894
-2.01968
-2.04016
-1.76694
-1.67926
-1.44341
-1.24626
-1.029
-0.80441
-0.576208
-0.346374
-0.115659
63.4116
63.4113
63.4246
63.4488
63.4833
63.5278
63.5863
63.6465
63.7355
63.8025
63.9024
63.9481
63.9977
-2.15149
-2.03162
-2.0519
-1.77763
-1.68933
-1.4522
-1.25393
-1.0354
-0.809455
-0.579845
-0.348571
-0.116396
63.4092
63.4087
63.4217
63.4457
63.4802
63.5249
63.5841
63.6465
63.7377
63.8102
63.9149
63.9649
64.0173
-2.16345
-2.04297
-2.06305
-1.78783
-1.69892
-1.46059
-1.26126
-1.04152
-0.814281
-0.583325
-0.350673
-0.117101
63.4071
63.4064
63.4191
63.4429
63.4773
63.5223
63.5822
63.6468
63.7402
63.818
63.9279
63.9822
64.0377
-2.17465
-2.05356
-2.07345
-1.79734
-1.70788
-1.46844
-1.26813
-1.04726
-0.818805
-0.586589
-0.352646
-0.117763
63.4054
63.4045
63.4169
63.4404
63.4747
63.5199
63.5806
63.6472
63.7428
63.8257
63.941
63.9997
64.0586
-2.18491
-2.06324
-2.08292
-1.80605
-1.71607
-1.47562
-1.27441
-1.05251
-0.822952
-0.589583
-0.354456
-0.11837
63.4042
63.4029
63.415
63.4383
63.4724
63.5179
63.5791
63.6477
63.7453
63.8331
63.9536
64.0167
64.079
-2.19409
-2.07183
-2.0913
-1.81378
-1.72335
-1.48202
-1.28001
-1.05719
-0.826651
-0.592254
-0.356071
-0.118912
63.4036
63.4018
63.4134
63.4364
63.4705
63.5161
63.578
63.6482
63.7477
63.8399
63.9654
64.0326
64.0982
-2.20205
-2.07926
-2.0985
-1.82045
-1.72962
-1.48752
-1.28483
-1.06123
-0.829839
-0.594556
-0.357463
-0.11938
63.4034
63.401
63.4122
63.435
63.469
63.5148
63.5771
63.6488
63.7499
63.8457
63.9756
64.0465
64.1153
-2.20869
-2.08535
-2.10437
-1.82591
-1.73475
-1.49203
-1.28878
-1.06454
-0.832459
-0.596449
-0.358608
-0.119764
63.4053
63.4009
63.4114
63.434
63.4679
63.5138
63.5764
63.6493
63.7516
63.8503
63.9837
64.058
64.1294
-2.21391
-2.09015
-2.10885
-1.83013
-1.73868
-1.49548
-1.29182
-1.06709
-0.834467
-0.5979
-0.359486
-0.120059
63.4052
63.4004
63.4107
63.4333
63.4671
63.5131
63.576
63.6496
63.7529
63.8535
63.9892
64.0663
64.1397
-2.21762
-2.09329
-2.11186
-1.83299
-1.74135
-1.4978
-1.29387
-1.06881
-0.835827
-0.598882
-0.36008
-0.120257
63.4112
63.4012
63.4106
63.433
63.4668
63.5128
63.5758
63.6499
63.7536
63.8553
63.9924
64.0703
64.1459
-2.21975
-2.09545
-2.11336
-1.83453
-1.74274
-1.49895
-1.29492
-1.06969
-0.83652
-0.599381
-0.360381
-0.120357
63.4533
63.4502
63.4629
63.4871
63.5204
63.5604
63.6124
63.6507
63.7238
63.7411
63.8247
63.8364
63.8714
-2.01915
-1.90314
-1.92409
-1.66206
-1.57978
-1.35681
-1.17031
-0.965419
-0.754196
-0.539921
-0.324413
-0.108279
63.4464
63.4486
63.4625
63.4866
63.5201
63.5602
63.6123
63.6509
63.7239
63.7427
63.8227
63.8363
63.8725
-2.01982
-1.90406
-1.92566
-1.66328
-1.581
-1.35792
-1.17124
-0.966184
-0.7548
-0.540355
-0.324674
-0.108367
63.4445
63.4471
63.4613
63.4856
63.5192
63.5594
63.6117
63.6508
63.724
63.7442
63.8233
63.8375
63.8745
-2.02236
-1.90713
-1.92877
-1.66598
-1.58355
-1.36014
-1.17314
-0.967757
-0.756033
-0.54124
-0.325207
-0.108545
63.4411
63.4447
63.4595
63.484
63.5178
63.5583
63.6107
63.6506
63.724
63.746
63.824
63.8398
63.8773
-2.02663
-1.91156
-1.93337
-1.67001
-1.58736
-1.36344
-1.17599
-0.97011
-0.757876
-0.542562
-0.326003
-0.108811
63.4381
63.4423
63.4574
63.482
63.516
63.5567
63.6094
63.6502
63.7239
63.7481
63.8255
63.8427
63.8807
-2.03253
-1.9176
-1.93942
-1.67535
-1.59238
-1.36777
-1.17973
-0.973211
-0.760304
-0.544305
-0.327052
-0.109162
63.435
63.4397
63.4548
63.4797
63.5138
63.5548
63.6077
63.6497
63.7239
63.7505
63.8276
63.8465
63.885
-2.03992
-1.92497
-1.94679
-1.68189
-1.59853
-1.37307
-1.18432
-0.977016
-0.763285
-0.546444
-0.32834
-0.109593
63.4318
63.4368
63.452
63.4769
63.5112
63.5525
63.6057
63.649
63.7238
63.7532
63.8302
63.8511
63.8901
-2.04868
-1.93366
-1.95539
-1.68956
-1.60572
-1.37928
-1.1897
-0.981472
-0.766777
-0.548952
-0.329851
-0.110098
63.4285
63.4337
63.4489
63.4739
63.5083
63.55
63.6035
63.6481
63.7238
63.7563
63.8334
63.8566
63.8961
-2.05866
-1.94345
-1.96507
-1.69823
-1.61384
-1.3863
-1.19578
-0.986517
-0.770732
-0.551793
-0.331562
-0.110671
63.4252
63.4305
63.4457
63.4707
63.5051
63.5471
63.601
63.6472
63.7239
63.7596
63.8374
63.8631
63.9033
-2.06968
-1.95423
-1.9757
-1.70776
-1.62277
-1.39402
-1.20248
-0.992076
-0.775093
-0.554927
-0.333451
-0.111303
63.4219
63.4271
63.4423
63.4672
63.5017
63.544
63.5983
63.6462
63.724
63.7634
63.8421
63.8706
63.9117
-2.08156
-1.96579
-1.98709
-1.718
-1.63236
-1.40234
-1.2097
-0.998069
-0.779797
-0.558308
-0.335489
-0.111985
63.4186
63.4237
63.4388
63.4636
63.4981
63.5407
63.5956
63.6451
63.7242
63.7675
63.8476
63.8792
63.9214
-2.0941
-1.97796
-1.99906
-1.7288
-1.64248
-1.41111
-1.21733
-1.00441
-0.784773
-0.561887
-0.337647
-0.112708
63.4153
63.4203
63.4352
63.46
63.4944
63.5374
63.5927
63.6441
63.7247
63.7722
63.854
63.889
63.9326
-2.1071
-1.99053
-2.01143
-1.73997
-1.65297
-1.42022
-1.22524
-1.01099
-0.789947
-0.565609
-0.339893
-0.11346
63.412
63.417
63.4317
63.4563
63.4907
63.5339
63.5898
63.6431
63.7253
63.7773
63.8615
63.9002
63.9454
-2.12034
-2.0033
-2.024
-1.75135
-1.66365
-1.42951
-1.23333
-1.01772
-0.795239
-0.569418
-0.342191
-0.11423
63.4089
63.4137
63.4282
63.4527
63.487
63.5305
63.587
63.6422
63.7263
63.7829
63.8701
63.9128
63.9599
-2.13362
-2.01606
-2.03656
-1.76274
-1.67436
-1.43884
-1.24146
-1.02449
-0.800564
-0.573253
-0.344505
-0.115005
63.4059
63.4106
63.4249
63.4491
63.4834
63.5271
63.5842
63.6414
63.7275
63.789
63.8797
63.9267
63.9761
-2.14671
-2.02861
-2.04891
-1.77397
-1.68492
-1.44805
-1.24949
-1.03119
-0.805838
-0.577052
-0.346799
-0.115775
63.4032
63.4078
63.4218
63.4458
63.48
63.5239
63.5816
63.6409
63.729
63.7954
63.8903
63.9418
63.9939
-2.15942
-2.04075
-2.06086
-1.78486
-1.69517
-1.457
-1.2573
-1.03771
-0.810973
-0.580754
-0.349035
-0.116524
63.4008
63.4051
63.4189
63.4426
63.4767
63.5208
63.5792
63.6405
63.7307
63.8022
63.9017
63.9579
64.013
-2.17153
-2.0523
-2.07221
-1.79523
-1.70494
-1.46554
-1.26477
-1.04394
-0.815887
-0.584297
-0.351176
-0.117243
63.3987
63.4028
63.4163
63.4398
63.4737
63.518
63.5771
63.6403
63.7327
63.8091
63.9137
63.9747
64.033
-2.18287
-2.06306
-2.08278
-1.80492
-1.71407
-1.47354
-1.27176
-1.04978
-0.820495
-0.587622
-0.353186
-0.117917
63.397
63.4009
63.414
63.4372
63.471
63.5155
63.5751
63.6403
63.7347
63.8159
63.9257
63.9916
64.0534
-2.19326
-2.07289
-2.09242
-1.81378
-1.72241
-1.48085
-1.27816
-1.05513
-0.824719
-0.590671
-0.355029
-0.118536
63.3958
63.3993
63.412
63.435
63.4687
63.5133
63.5735
63.6404
63.7368
63.8224
63.9374
64.0081
64.0735
-2.20254
-2.08162
-2.10096
-1.82165
-1.72982
-1.48736
-1.28386
-1.05991
-0.828488
-0.593392
-0.356675
-0.119088
63.3952
63.3982
63.4105
63.4332
63.4667
63.5114
63.5721
63.6407
63.7388
63.8283
63.9482
64.0234
64.0923
-2.21059
-2.08916
-2.10828
-1.82843
-1.7362
-1.49296
-1.28877
-1.06402
-0.831736
-0.595738
-0.358093
-0.119565
63.3949
63.3974
63.4092
63.4317
63.4651
63.51
63.571
63.6409
63.7406
63.8335
63.9576
64.0369
64.1091
-2.2173
-2.09534
-2.11425
-1.83399
-1.74143
-1.49756
-1.2928
-1.0674
-0.834406
-0.597667
-0.35926
-0.119956
63.3968
63.3972
63.4084
63.4306
63.4639
63.5089
63.5702
63.6412
63.742
63.8375
63.9651
64.048
64.1229
-2.22257
-2.10021
-2.1188
-1.83828
-1.74543
-1.50107
-1.29589
-1.06999
-0.836453
-0.599146
-0.360155
-0.120257
63.3967
63.3968
63.4077
63.4299
63.4631
63.5081
63.5697
63.6414
63.7431
63.8403
63.9701
64.0558
64.133
-2.22633
-2.1034
-2.12186
-1.84118
-1.74815
-1.50344
-1.29798
-1.07174
-0.837839
-0.600147
-0.36076
-0.120459
63.4026
63.3976
63.4076
63.4297
63.4628
63.5078
63.5695
63.6415
63.7437
63.842
63.9734
64.0582
64.1387
-2.22849
-2.10558
-2.12337
-1.84275
-1.74956
-1.50461
-1.29905
-1.07264
-0.838543
-0.600654
-0.361066
-0.120561
63.4477
63.4452
63.4581
63.4822
63.5155
63.5553
63.607
63.6454
63.7182
63.7364
63.8192
63.8318
63.8679
-2.03309
-1.91751
-1.93678
-1.6721
-1.58719
-1.36255
-1.17381
-0.967382
-0.755149
-0.540239
-0.32442
-0.108214
63.4411
63.4434
63.4576
63.4817
63.5151
63.555
63.6069
63.6456
63.7183
63.7381
63.8168
63.8316
63.869
-2.03379
-1.91847
-1.9384
-1.67336
-1.58845
-1.3637
-1.17477
-0.968168
-0.75577
-0.540685
-0.324688
-0.108305
63.439
63.442
63.4565
63.4807
63.5142
63.5543
63.6062
63.6455
63.7183
63.7395
63.8174
63.8327
63.8711
-2.03642
-1.92166
-1.94162
-1.67615
-1.59108
-1.36599
-1.17673
-0.969786
-0.757038
-0.541594
-0.325235
-0.108487
63.4354
63.4397
63.4547
63.4791
63.5127
63.553
63.6052
63.6451
63.7182
63.7411
63.8181
63.8348
63.8738
-2.04084
-1.92626
-1.94639
-1.68032
-1.59501
-1.36939
-1.17966
-0.972208
-0.758933
-0.542954
-0.326053
-0.108761
63.4322
63.4373
63.4525
63.4771
63.5109
63.5514
63.6037
63.6446
63.7179
63.743
63.8193
63.8375
63.8771
-2.04693
-1.93252
-1.95266
-1.68585
-1.6002
-1.37385
-1.18352
-0.9754
-0.761431
-0.544746
-0.327132
-0.109122
63.429
63.4346
63.45
63.4747
63.5085
63.5493
63.6019
63.6438
63.7176
63.7451
63.821
63.841
63.8811
-2.05458
-1.94017
-1.96029
-1.69262
-1.60656
-1.37933
-1.18826
-0.979319
-0.764499
-0.546947
-0.328457
-0.109565
63.4259
63.4317
63.4471
63.4719
63.5059
63.5469
63.5997
63.6428
63.7172
63.7474
63.8231
63.8452
63.8858
-2.06363
-1.94918
-1.96921
-1.70055
-1.61399
-1.38574
-1.1938
-0.983911
-0.768095
-0.549528
-0.330011
-0.110085
63.4226
63.4286
63.444
63.4688
63.5028
63.5442
63.5972
63.6416
63.7168
63.7499
63.8257
63.8501
63.8914
-2.07393
-1.95933
-1.97925
-1.70952
-1.62238
-1.39299
-1.20008
-0.989112
-0.77217
-0.552454
-0.331774
-0.110674
63.4193
63.4253
63.4407
63.4654
63.4995
63.5411
63.5945
63.6403
63.7163
63.7526
63.8288
63.8559
63.8979
-2.08531
-1.9705
-1.99027
-1.71938
-1.63162
-1.40097
-1.20699
-0.994848
-0.776666
-0.555684
-0.33372
-0.111326
63.4159
63.4219
63.4372
63.4619
63.4959
63.5378
63.5915
63.6388
63.7159
63.7555
63.8325
63.8625
63.9055
-2.09758
-1.98249
-2.00207
-1.72998
-1.64155
-1.40957
-1.21445
-1.00103
-0.781519
-0.559171
-0.335822
-0.112029
63.4126
63.4184
63.4336
63.4582
63.4922
63.5342
63.5883
63.6371
63.7154
63.7587
63.8367
63.8699
63.9141
-2.11052
-1.99509
-2.01449
-1.74116
-1.65202
-1.41865
-1.22233
-1.00758
-0.786658
-0.562865
-0.338049
-0.112775
63.4092
63.415
63.43
63.4544
63.4883
63.5306
63.585
63.6354
63.7151
63.7621
63.8417
63.8783
63.9241
-2.12393
-2.00811
-2.02731
-1.75273
-1.66288
-1.42807
-1.23052
-1.01439
-0.792003
-0.56671
-0.340368
-0.113552
63.4059
63.4116
63.4264
63.4506
63.4844
63.5268
63.5817
63.6337
63.7148
63.7658
63.8475
63.8877
63.9353
-2.13758
-2.02133
-2.04034
-1.76451
-1.67394
-1.43769
-1.23889
-1.02135
-0.797474
-0.570647
-0.342743
-0.114348
63.4028
63.4083
63.4229
63.4468
63.4805
63.523
63.5783
63.632
63.7147
63.7699
63.8541
63.8982
63.948
-2.15127
-2.03455
-2.05336
-1.77631
-1.68504
-1.44735
-1.2473
-1.02835
-0.802983
-0.574613
-0.345137
-0.11515
63.3998
63.4051
63.4195
63.4432
63.4767
63.5193
63.575
63.6304
63.7149
63.7742
63.8616
63.9098
63.9622
-2.16475
-2.04753
-2.06616
-1.78794
-1.69599
-1.45689
-1.25562
-1.03529
-0.808442
-0.578546
-0.347512
-0.115947
63.397
63.4022
63.4163
63.4397
63.473
63.5157
63.5719
63.629
63.7152
63.7789
63.87
63.9224
63.9778
-2.17783
-2.06009
-2.07854
-1.79922
-1.70661
-1.46617
-1.26372
-1.04204
-0.813762
-0.58238
-0.349828
-0.116723
63.3945
63.3995
63.4133
63.4364
63.4695
63.5123
63.5689
63.6277
63.7158
63.7838
63.879
63.9359
63.9946
-2.19029
-2.07203
-2.0903
-1.80996
-1.71674
-1.47503
-1.27146
-1.0485
-0.818854
-0.586051
-0.352046
-0.117468
63.3924
63.3972
63.4106
63.4334
63.4663
63.5092
63.5662
63.6266
63.7166
63.7888
63.8885
63.95
64.0122
-2.20195
-2.08315
-2.10125
-1.81999
-1.7262
-1.48332
-1.2787
-1.05456
-0.823632
-0.589498
-0.35413
-0.118167
63.3907
63.3952
63.4082
63.4308
63.4635
63.5063
63.5638
63.6258
63.7176
63.7938
63.8982
63.9642
64.0302
-2.21263
-2.09331
-2.11122
-1.82916
-1.73485
-1.4909
-1.28534
-1.06012
-0.828015
-0.592661
-0.356042
-0.118809
63.3895
63.3936
63.4062
63.4284
63.4609
63.5038
63.5617
63.6251
63.7186
63.7985
63.9076
63.978
64.0478
-2.22216
-2.10232
-2.12006
-1.8373
-1.74254
-1.49766
-1.29126
-1.06507
-0.831926
-0.595485
-0.35775
-0.119383
63.3888
63.3924
63.4046
63.4265
63.4588
63.5017
63.5599
63.6246
63.7196
63.8029
63.9163
63.9908
64.0645
-2.23043
-2.1101
-2.12763
-1.84432
-1.74916
-1.50347
-1.29636
-1.06934
-0.835298
-0.59792
-0.359223
-0.119878
63.3885
63.3916
63.4033
63.4249
63.4571
63.5
63.5584
63.6243
63.7206
63.8067
63.9238
64.0021
64.0792
-2.23731
-2.11648
-2.13381
-1.85008
-1.75457
-1.50824
-1.30054
-1.07285
-0.83807
-0.599923
-0.360435
-0.120285
63.3904
63.3915
63.4025
63.4238
63.4558
63.4987
63.5573
63.6241
63.7214
63.8096
63.9298
64.0113
64.0913
-2.24272
-2.12149
-2.13852
-1.85451
-1.75873
-1.51188
-1.30375
-1.07554
-0.840196
-0.601459
-0.361364
-0.120597
63.3902
63.3911
63.4018
63.423
63.4549
63.4979
63.5566
63.6239
63.722
63.8117
63.9336
64.018
64.1001
-2.24657
-2.12478
-2.14168
-1.85751
-1.76155
-1.51434
-1.30592
-1.07736
-0.841636
-0.602499
-0.361993
-0.120808
63.3962
63.3919
63.4016
63.4228
63.4546
63.4975
63.5563
63.6239
63.7224
63.813
63.936
64.0219
64.1049
-2.24878
-2.12702
-2.14325
-1.85913
-1.76301
-1.51555
-1.30703
-1.07829
-0.842367
-0.603026
-0.362311
-0.120913
63.439
63.4377
63.4509
63.4749
63.508
63.5476
63.599
63.6375
63.7098
63.729
63.8107
63.825
63.8617
-2.05543
-1.93888
-1.95564
-1.68704
-1.59814
-1.37094
-1.17886
-0.970138
-0.756411
-0.540582
-0.324337
-0.108081
63.4325
63.4359
63.4503
63.4744
63.5076
63.5473
63.5988
63.6376
63.7098
63.7307
63.8078
63.8247
63.8628
-2.05619
-1.93994
-1.95735
-1.68837
-1.59946
-1.37214
-1.17985
-0.970957
-0.757057
-0.541045
-0.324615
-0.108174
63.4303
63.4345
63.4492
63.4733
63.5066
63.5464
63.598
63.6373
63.7097
63.732
63.8084
63.8256
63.8649
-2.05897
-1.94329
-1.96074
-1.69131
-1.60222
-1.37453
-1.1819
-0.972644
-0.758377
-0.541991
-0.325184
-0.108364
63.4265
63.4323
63.4474
63.4717
63.5051
63.5451
63.5968
63.6368
63.7093
63.7334
63.8087
63.8274
63.8674
-2.06362
-1.94816
-1.96577
-1.69568
-1.60634
-1.37809
-1.18496
-0.975169
-0.76035
-0.543405
-0.326034
-0.108648
63.4234
63.4298
63.4452
63.4697
63.5031
63.5433
63.5952
63.636
63.7088
63.735
63.8094
63.8298
63.8704
-2.07005
-1.95476
-1.97237
-1.70149
-1.61178
-1.38276
-1.18899
-0.978498
-0.762953
-0.545271
-0.327157
-0.109024
63.4202
63.427
63.4426
63.4671
63.5007
63.5411
63.5931
63.6349
63.7081
63.7366
63.8105
63.8328
63.8739
-2.07809
-1.96283
-1.98042
-1.7086
-1.61844
-1.3885
-1.19394
-0.982589
-0.766152
-0.547565
-0.328538
-0.109485
63.417
63.424
63.4397
63.4643
63.4978
63.5385
63.5906
63.6335
63.7072
63.7383
63.8118
63.8363
63.878
-2.08761
-1.97233
-1.98982
-1.71694
-1.62624
-1.39521
-1.19974
-0.987385
-0.769905
-0.550257
-0.330159
-0.110028
63.4138
63.4208
63.4365
63.461
63.4946
63.5354
63.5878
63.6318
63.7062
63.7399
63.8135
63.8404
63.8827
-2.09844
-1.98303
-2.00041
-1.72637
-1.63506
-1.40281
-1.20631
-0.992822
-0.774162
-0.553312
-0.331998
-0.110643
63.4104
63.4175
63.4331
63.4576
63.4911
63.5321
63.5846
63.6298
63.7049
63.7415
63.8153
63.845
63.888
-2.11041
-1.9948
-2.01202
-1.73674
-1.64475
-1.41119
-1.21356
-0.998824
-0.778863
-0.556687
-0.334032
-0.111323
63.407
63.414
63.4296
63.4539
63.4873
63.5284
63.5811
63.6275
63.7035
63.7431
63.8173
63.85
63.894
-2.12329
-2.00743
-2.02447
-1.74789
-1.65519
-1.42021
-1.22137
-1.0053
-0.783942
-0.560335
-0.33623
-0.112059
63.4036
63.4105
63.4259
63.45
63.4833
63.5245
63.5774
63.625
63.702
63.7447
63.8196
63.8555
63.9007
-2.13689
-2.0207
-2.03756
-1.75964
-1.66621
-1.42975
-1.22965
-1.01217
-0.789324
-0.564203
-0.338562
-0.11284
63.4002
63.407
63.4222
63.4461
63.4792
63.5204
63.5734
63.6223
63.7004
63.7462
63.8222
63.8615
63.9081
-2.15096
-2.03441
-2.05108
-1.77181
-1.67763
-1.43966
-1.23825
-1.01931
-0.79493
-0.568233
-0.340993
-0.113655
63.3969
63.4035
63.4184
63.4421
63.475
63.5162
63.5694
63.6195
63.6988
63.7477
63.8251
63.8681
63.9164
-2.16528
-2.04832
-2.06481
-1.78421
-1.68928
-1.44978
-1.24704
-1.02662
-0.800673
-0.572364
-0.343485
-0.11449
63.3936
63.4002
63.4148
63.4381
63.4708
63.5119
63.5653
63.6166
63.6972
63.7493
63.8286
63.8753
63.9256
-2.17962
-2.06222
-2.07853
-1.79663
-1.70096
-1.45995
-1.25589
-1.03399
-0.806463
-0.576531
-0.346
-0.115333
63.3906
63.397
63.4113
63.4343
63.4667
63.5077
63.5612
63.6137
63.6956
63.7509
63.8326
63.8832
63.9358
-2.19374
-2.07587
-2.09202
-1.80887
-1.7125
-1.47
-1.26465
-1.04129
-0.812205
-0.580666
-0.348497
-0.116171
63.3878
63.394
63.408
63.4306
63.4627
63.5036
63.5572
63.6109
63.6942
63.7526
63.8371
63.8918
63.9471
-2.20742
-2.08906
-2.10506
-1.82074
-1.7237
-1.47978
-1.27319
-1.0484
-0.817806
-0.584701
-0.350934
-0.116988
63.3853
63.3912
63.4049
63.4272
63.4589
63.4996
63.5534
63.6083
63.693
63.7545
63.8421
63.901
63.9593
-2.22045
-2.10159
-2.11744
-1.83205
-1.73437
-1.48911
-1.28134
-1.05521
-0.823171
-0.588569
-0.353271
-0.117773
63.3831
63.3888
63.4021
63.424
63.4554
63.496
63.5499
63.6059
63.692
63.7565
63.8476
63.9106
63.9722
-2.23263
-2.11325
-2.12897
-1.8426
-1.74435
-1.49786
-1.28899
-1.0616
-0.828209
-0.592203
-0.355468
-0.118511
63.3813
63.3867
63.3996
63.4212
63.4522
63.4926
63.5467
63.6037
63.6912
63.7585
63.8531
63.9203
63.9853
-2.24377
-2.12389
-2.13946
-1.85225
-1.75348
-1.50586
-1.29599
-1.06746
-0.832833
-0.59554
-0.357486
-0.119188
63.3801
63.3851
63.3976
63.4187
63.4494
63.4897
63.5438
63.6018
63.6905
63.7605
63.8586
63.9297
63.9981
-2.25371
-2.13333
-2.14875
-1.86082
-1.76159
-1.51299
-1.30224
-1.07269
-0.836961
-0.598521
-0.359289
-0.119794
63.3794
63.3839
63.3958
63.4166
63.447
63.4872
63.5414
63.6002
63.6901
63.7623
63.8637
63.9384
64.0101
-2.26231
-2.14147
-2.15671
-1.8682
-1.76856
-1.51912
-1.30762
-1.0772
-0.840522
-0.601093
-0.360845
-0.120317
63.3791
63.3831
63.3945
63.4149
63.4451
63.4851
63.5394
63.599
63.6897
63.7639
63.868
63.9459
64.0205
-2.26946
-2.14813
-2.1632
-1.87425
-1.77428
-1.52415
-1.31204
-1.0809
-0.843452
-0.603209
-0.362126
-0.120748
63.3809
63.3829
63.3936
63.4137
63.4437
63.4836
63.5379
63.598
63.6895
63.7651
63.8712
63.9518
64.0289
-2.27508
-2.15337
-2.16815
-1.87891
-1.77866
-1.528
-1.31543
-1.08375
-0.845698
-0.604832
-0.363109
-0.121078
63.3807
63.3825
63.3929
63.4129
63.4427
63.4825
63.5369
63.5974
63.6893
63.7659
63.8729
63.9559
64.0348
-2.27908
-2.1568
-2.17147
-1.88206
-1.78163
-1.53059
-1.31772
-1.08567
-0.84722
-0.605932
-0.363774
-0.121301
63.3866
63.3833
63.3927
63.4126
63.4423
63.4821
63.5364
63.5971
63.6894
63.7667
63.8738
63.9577
64.0377
-2.28137
-2.1591
-2.17312
-1.88375
-1.78317
-1.53187
-1.31889
-1.08666
-0.847993
-0.606489
-0.364111
-0.121414
63.429
63.4283
63.4416
63.4653
63.498
63.5372
63.5881
63.6268
63.6986
63.7189
63.7993
63.8154
63.8527
-2.08609
-1.9676
-1.98078
-1.70687
-1.61255
-1.38182
-1.18526
-0.973549
-0.757856
-0.54085
-0.324102
-0.107856
63.4224
63.4266
63.4409
63.4648
63.4976
63.5369
63.5879
63.6268
63.6985
63.7206
63.7963
63.8151
63.8539
-2.08693
-1.96877
-1.9826
-1.70829
-1.61395
-1.3831
-1.18631
-0.974412
-0.758535
-0.541335
-0.324393
-0.107953
63.4202
63.4251
63.4398
63.4637
63.4966
63.536
63.587
63.6264
63.6982
63.7217
63.7967
63.8158
63.8558
-2.08993
-1.97237
-1.98622
-1.71143
-1.61688
-1.38563
-1.18847
-0.976189
-0.759923
-0.542329
-0.32499
-0.108152
63.4165
63.4228
63.438
63.462
63.495
63.5345
63.5857
63.6256
63.6975
63.7228
63.7965
63.8172
63.858
-2.09492
-1.97759
-1.9916
-1.71609
-1.62126
-1.3894
-1.1917
-0.978851
-0.762001
-0.543817
-0.325884
-0.108451
63.4133
63.4203
63.4357
63.4598
63.4929
63.5326
63.5838
63.6244
63.6966
63.7238
63.7967
63.8191
63.8605
-2.1018
-1.98466
-1.99866
-1.72227
-1.62704
-1.39435
-1.19596
-0.982364
-0.764744
-0.545782
-0.327066
-0.108846
63.4102
63.4175
63.4331
63.4572
63.4903
63.5301
63.5814
63.6229
63.6954
63.7248
63.7969
63.8214
63.8634
-2.1104
-1.99331
-2.00728
-1.72985
-1.63411
-1.40043
-1.2012
-0.986684
-0.768118
-0.548199
-0.32852
-0.109332
63.4069
63.4144
63.4301
63.4542
63.4872
63.5272
63.5785
63.6209
63.6938
63.7256
63.7972
63.824
63.8665
-2.12058
-2.00347
-2.01734
-1.73873
-1.64241
-1.40756
-1.20734
-0.991754
-0.772081
-0.55104
-0.33023
-0.109904
63.4036
63.4111
63.4268
63.4509
63.4838
63.5238
63.5752
63.6186
63.6919
63.7261
63.7974
63.8268
63.8698
-2.13216
-2.01493
-2.02866
-1.74878
-1.65179
-1.41563
-1.21431
-0.997508
-0.77658
-0.554267
-0.332173
-0.110554
63.4002
63.4077
63.4233
63.4472
63.48
63.5201
63.5714
63.6157
63.6897
63.7263
63.7974
63.8296
63.8734
-2.14494
-2.02752
-2.04109
-1.75984
-1.66212
-1.42454
-1.222
-1.00387
-0.781557
-0.557837
-0.334323
-0.111274
63.3967
63.4042
63.4196
63.4433
63.4759
63.516
63.5673
63.6125
63.6871
63.7261
63.7971
63.8323
63.877
-2.1587
-2.04102
-2.05442
-1.77173
-1.67325
-1.43415
-1.23031
-1.01074
-0.78694
-0.561701
-0.336651
-0.112053
63.3933
63.4006
63.4158
63.4393
63.4716
63.5115
63.5628
63.6088
63.6841
63.7254
63.7965
63.8348
63.8805
-2.1732
-2.05521
-2.06844
-1.78428
-1.685
-1.44431
-1.23911
-1.01803
-0.792653
-0.565804
-0.339124
-0.112881
63.3898
63.397
63.4119
63.4351
63.4671
63.5069
63.5581
63.6048
63.6808
63.7242
63.7955
63.837
63.884
-2.1882
-2.06985
-2.08291
-1.79727
-1.69719
-1.45488
-1.24827
-1.02563
-0.798612
-0.570085
-0.341706
-0.113747
63.3864
63.3934
63.4081
63.4309
63.4626
63.5021
63.5531
63.6005
63.6773
63.7226
63.7943
63.8389
63.8874
-2.20345
-2.08471
-2.09761
-1.81051
-1.70963
-1.46568
-1.25765
-1.03342
-0.804724
-0.57448
-0.344357
-0.114635
63.3832
63.39
63.4043
63.4267
63.458
63.4972
63.548
63.596
63.6735
63.7205
63.793
63.8406
63.8908
-2.2187
-2.09953
-2.11229
-1.82377
-1.72212
-1.47654
-1.2671
-1.04127
-0.810894
-0.578918
-0.347036
-0.115533
63.3801
63.3867
63.4006
63.4226
63.4534
63.4923
63.5428
63.5913
63.6697
63.7181
63.7916
63.8423
63.8944
-2.2337
-2.11409
-2.12672
-1.83685
-1.73446
-1.48729
-1.27647
-1.04907
-0.817021
-0.583329
-0.349699
-0.116427
63.3772
63.3836
63.3972
63.4187
63.449
63.4875
63.5377
63.5867
63.6658
63.7156
63.7903
63.844
63.8983
-2.24823
-2.12815
-2.14066
-1.84953
-1.74644
-1.49775
-1.28559
-1.05667
-0.823004
-0.587638
-0.352302
-0.117301
63.3746
63.3807
63.394
63.415
63.4448
63.4829
63.5328
63.5822
63.662
63.713
63.7892
63.8459
63.9026
-2.26204
-2.14148
-2.15389
-1.8616
-1.75787
-1.50774
-1.29432
-1.06396
-0.828741
-0.591773
-0.354801
-0.11814
63.3724
63.3783
63.391
63.4116
63.4409
63.4785
63.5282
63.5779
63.6584
63.7106
63.7884
63.8479
63.9071
-2.27492
-2.15388
-2.1662
-1.87287
-1.76855
-1.51711
-1.30251
-1.0708
-0.834134
-0.595662
-0.357152
-0.11893
63.3706
63.3761
63.3885
63.4086
63.4374
63.4746
63.5239
63.574
63.6551
63.7083
63.7877
63.85
63.9117
-2.2867
-2.16519
-2.1774
-1.88317
-1.77832
-1.52568
-1.31002
-1.07708
-0.839088
-0.599237
-0.359314
-0.119656
63.3692
63.3744
63.3863
63.4059
63.4342
63.471
63.5201
63.5705
63.6521
63.7062
63.7872
63.8518
63.9159
-2.2972
-2.1752
-2.18731
-1.89232
-1.78701
-1.53332
-1.31672
-1.08269
-0.843514
-0.602432
-0.361247
-0.120306
63.3685
63.3732
63.3845
63.4036
63.4316
63.468
63.5168
63.5674
63.6495
63.7043
63.7865
63.8532
63.9194
-2.30627
-2.18382
-2.19579
-1.90019
-1.79448
-1.53989
-1.32249
-1.08752
-0.847334
-0.605191
-0.362917
-0.120868
63.3682
63.3723
63.383
63.4018
63.4294
63.4655
63.5141
63.5649
63.6473
63.7027
63.7856
63.8539
63.9218
-2.3138
-2.19088
-2.20271
-1.90664
-1.8006
-1.54528
-1.32723
-1.0915
-0.850479
-0.607463
-0.364292
-0.12133
63.3699
63.3721
63.3821
63.4005
63.4278
63.4636
63.5121
63.5629
63.6455
63.7013
63.7845
63.854
63.9231
-2.31972
-2.1964
-2.20798
-1.91161
-1.80529
-1.54941
-1.33087
-1.09455
-0.852891
-0.609206
-0.365348
-0.121685
63.3698
63.3717
63.3813
63.3996
63.4266
63.4623
63.5106
63.5616
63.6442
63.7003
63.783
63.8534
63.9232
-2.32392
-2.20003
-2.21151
-1.91496
-1.80847
-1.55219
-1.33333
-1.09662
-0.854525
-0.610387
-0.366063
-0.121926
63.3756
63.3725
63.3811
63.3993
63.4262
63.4618
63.51
63.561
63.6435
63.7002
63.7818
63.8483
63.9226
-2.32631
-2.20243
-2.21327
-1.91675
-1.81011
-1.55356
-1.33459
-1.09768
-0.855355
-0.610986
-0.366426
-0.122047
63.4174
63.4169
63.43
63.4535
63.4857
63.5244
63.5747
63.6133
63.6845
63.7062
63.7852
63.8032
63.8411
-2.12527
-2.00376
-2.01223
-1.73154
-1.63029
-1.39498
-1.19279
-0.977436
-0.759314
-0.540911
-0.323631
-0.107511
63.4107
63.4152
63.4294
63.4529
63.4852
63.524
63.5743
63.6133
63.6843
63.7077
63.782
63.8028
63.8422
-2.12622
-2.00509
-2.01419
-1.73308
-1.6318
-1.39634
-1.19391
-0.978358
-0.760034
-0.541425
-0.323938
-0.107613
63.4085
63.4137
63.4282
63.4517
63.4841
63.523
63.5733
63.6127
63.6838
63.7085
63.7821
63.8033
63.8439
-2.12951
-2.00899
-2.01812
-1.73645
-1.63495
-1.39905
-1.19621
-0.98025
-0.761509
-0.542479
-0.32457
-0.107824
63.4048
63.4113
63.4264
63.45
63.4824
63.5214
63.5717
63.6116
63.6828
63.7092
63.7814
63.8043
63.8457
-2.13495
-2.01468
-2.02394
-1.74148
-1.63964
-1.40308
-1.19966
-0.983082
-0.763717
-0.544058
-0.325518
-0.10814
63.4016
63.4088
63.4241
63.4477
63.4802
63.5192
63.5696
63.61
63.6814
63.7097
63.7808
63.8056
63.8476
-2.14242
-2.02236
-2.0316
-1.74814
-1.64585
-1.40839
-1.20421
-0.986824
-0.766634
-0.546145
-0.326773
-0.10856
63.3984
63.4059
63.4213
63.445
63.4774
63.5165
63.5668
63.6079
63.6795
63.7098
63.7801
63.807
63.8495
-2.15175
-2.03174
-2.04093
-1.75631
-1.65346
-1.41491
-1.20981
-0.99143
-0.770227
-0.548718
-0.32832
-0.109077
63.3951
63.4027
63.4182
63.4419
63.4741
63.5132
63.5635
63.6053
63.6771
63.7095
63.7791
63.8083
63.8514
-2.1628
-2.04276
-2.05184
-1.76589
-1.66238
-1.42256
-1.21639
-0.996843
-0.774453
-0.551744
-0.330141
-0.109685
63.3918
63.3994
63.4148
63.4383
63.4704
63.5094
63.5596
63.6021
63.6742
63.7086
63.7774
63.8094
63.8529
-2.17536
-2.05518
-2.06413
-1.77673
-1.67249
-1.43124
-1.22386
-1.003
-0.779259
-0.555187
-0.332213
-0.110379
63.3883
63.3959
63.4112
63.4345
63.4663
63.5052
63.5551
63.5982
63.6707
63.7069
63.775
63.8097
63.854
-2.1892
-2.06883
-2.07761
-1.78867
-1.68362
-1.44082
-1.23211
-1.00981
-0.784582
-0.559003
-0.33451
-0.111147
63.3848
63.3923
63.4074
63.4304
63.4619
63.5006
63.5502
63.5938
63.6666
63.7043
63.7716
63.8092
63.8542
-2.20409
-2.08346
-2.09207
-1.80151
-1.69563
-1.45117
-1.24105
-1.01718
-0.79035
-0.56314
-0.337003
-0.111982
63.3812
63.3886
63.4034
63.4261
63.4572
63.4955
63.5448
63.5887
63.6618
63.7007
63.7671
63.8073
63.8531
-2.21978
-2.09883
-2.10728
-1.81507
-1.70832
-1.46214
-1.25052
-1.02501
-0.796483
-0.567541
-0.339655
-0.11287
63.3777
63.3849
63.3994
63.4217
63.4523
63.4902
63.539