/*--------------------------------*- C++ -*----------------------------------*\
| =========                 |                                                 |
| \\      /  F ield         | OpenFOAM: The Open Source CFD Toolbox           |
|  \\    /   O peration     | Version:  2306                                  |
|   \\  /    A nd           | Website:  www.openfoam.com                      |
|    \\/     M anipulation  |                                                 |
\*---------------------------------------------------------------------------*/
FoamFile
{
    version     2.0;
    format      ascii;
    arch        "LSB;label=32;scalar=64";
    class       volScalarField;
    location    "2.1";
    object      p;
}
// * * * * * * * * * * * * * * * * * * * * * * * * * * * * * * * * * * * * * //

dimensions      [0 2 -2 0 0 0 0];

internalField   nonuniform List<scalar> 
288632
(
46.7733
46.7647
46.7734
46.7928
46.8205
46.8551
46.8982
46.9284
47.0316
46.9612
47.1507
47.0752
47.1415
-0.427106
-0.33859
-0.555917
-0.323881
-0.38953
-0.325872
-0.277531
-0.228141
-0.177754
-0.126933
-0.0764036
-0.0256148
46.7668
46.7629
46.7725
46.792
46.8197
46.8544
46.8975
46.9279
47.0308
46.9609
47.1498
47.0742
47.1413
-0.42766
-0.338573
-0.557232
-0.32476
-0.390489
-0.32672
-0.278237
-0.228718
-0.178201
-0.127251
-0.0765943
-0.0256792
46.7638
46.7607
46.7707
46.7903
46.818
46.8527
46.8958
46.9268
47.0291
46.9608
47.1482
47.0731
47.1413
-0.429346
-0.34121
-0.559673
-0.326906
-0.392443
-0.328416
-0.279666
-0.229882
-0.179101
-0.12789
-0.0769763
-0.0258064
46.7597
46.7577
46.768
46.7877
46.8154
46.8501
46.8933
46.9249
47.0263
46.9604
47.1454
47.0724
47.1412
-0.432432
-0.344379
-0.563301
-0.329994
-0.395341
-0.330927
-0.281791
-0.231614
-0.180441
-0.128842
-0.0775448
-0.0259952
46.7556
46.7541
46.7646
46.7844
46.812
46.8467
46.89
46.9223
47.0226
46.9598
47.1419
47.0714
47.1407
-0.437061
-0.349302
-0.56806
-0.3342
-0.399165
-0.334236
-0.284589
-0.233894
-0.182204
-0.130093
-0.0782921
-0.0262432
46.7511
46.75
46.7606
46.7803
46.8079
46.8425
46.8858
46.919
47.0181
46.9591
47.1376
47.0702
47.1401
-0.44296
-0.355093
-0.573867
-0.33933
-0.403841
-0.338292
-0.288021
-0.236689
-0.184365
-0.131628
-0.0792082
-0.0265471
46.7464
46.7454
46.756
46.7756
46.803
46.8376
46.8808
46.9152
47.0126
46.9581
47.1328
47.069
47.1394
-0.450063
-0.362125
-0.580667
-0.345384
-0.40932
-0.343044
-0.292039
-0.239963
-0.186896
-0.133424
-0.0802808
-0.0269028
46.7415
46.7404
46.751
46.7703
46.7976
46.832
46.8752
46.9107
47.0065
46.9569
47.1279
47.0679
47.1388
-0.458235
-0.370057
-0.588345
-0.352248
-0.415521
-0.348427
-0.29659
-0.243669
-0.189761
-0.135458
-0.081495
-0.0273054
46.7362
46.7351
46.7455
46.7646
46.7916
46.8259
46.8691
46.9058
46.9997
46.9555
47.1229
47.0671
47.1386
-0.467334
-0.37886
-0.596809
-0.359834
-0.422358
-0.354365
-0.301608
-0.247756
-0.19292
-0.137701
-0.0828336
-0.0277492
46.7308
46.7296
46.7397
46.7585
46.7851
46.8192
46.8624
46.9004
46.9925
46.9532
47.1189
47.0666
47.1389
-0.477224
-0.38838
-0.605933
-0.368029
-0.429734
-0.360772
-0.307023
-0.252165
-0.196328
-0.140119
-0.0842774
-0.0282279
46.7252
46.7238
46.7336
46.7521
46.7783
46.8122
46.8553
46.8947
46.985
46.9506
47.1161
47.0669
47.1402
-0.487752
-0.398477
-0.615587
-0.37671
-0.43754
-0.367554
-0.312754
-0.256832
-0.199934
-0.142679
-0.0858052
-0.0287344
46.7196
46.718
46.7275
46.7455
46.7713
46.8049
46.848
46.8888
46.9774
46.9486
47.1136
47.0682
47.1428
-0.498755
-0.408994
-0.625623
-0.385746
-0.445661
-0.374609
-0.318715
-0.261686
-0.203685
-0.145341
-0.0873942
-0.0292613
46.714
46.7122
46.7213
46.7388
46.7642
46.7975
46.8406
46.8828
46.9698
46.9472
47.1121
47.0708
47.1468
-0.51007
-0.419767
-0.635889
-0.394998
-0.453971
-0.381829
-0.324816
-0.266652
-0.207523
-0.148065
-0.08902
-0.0298003
46.7085
46.7065
46.7151
46.7322
46.757
46.79
46.8332
46.8769
46.9625
46.9464
47.1117
47.0751
47.1527
-0.521513
-0.430627
-0.646224
-0.40432
-0.462341
-0.389101
-0.33096
-0.271655
-0.211389
-0.150808
-0.0906571
-0.0303431
46.7032
46.701
46.7092
46.7257
46.75
46.7827
46.8259
46.8712
46.9556
46.9464
47.1127
47.0813
47.1607
-0.53291
-0.441402
-0.656462
-0.413564
-0.470638
-0.396309
-0.337051
-0.276613
-0.21522
-0.153526
-0.0922796
-0.030881
46.6983
46.6957
46.7035
46.7194
46.7432
46.7756
46.8189
46.8658
46.9494
46.9472
47.1152
47.0897
47.171
-0.544068
-0.451917
-0.666436
-0.42258
-0.478725
-0.403335
-0.342988
-0.281446
-0.218954
-0.156176
-0.0938611
-0.0314053
46.6937
46.6909
46.6981
46.7135
46.7368
46.7689
46.8123
46.8608
46.9439
46.9489
47.1191
47.0999
47.1835
-0.554812
-0.462002
-0.675982
-0.43122
-0.486468
-0.410064
-0.348673
-0.286074
-0.22253
-0.158714
-0.0953755
-0.0319074
46.6896
46.6864
46.6932
46.708
46.7308
46.7626
46.8062
46.8563
46.9392
46.9513
47.1244
47.1114
47.1978
-0.564959
-0.471485
-0.684934
-0.439339
-0.493736
-0.416382
-0.354011
-0.29042
-0.225887
-0.161096
-0.0967971
-0.0323787
46.686
46.6826
46.6888
46.703
46.7253
46.7569
46.8007
46.8522
46.9353
46.9542
47.131
47.1242
47.2133
-0.574349
-0.480236
-0.693144
-0.446804
-0.500407
-0.422182
-0.358911
-0.294408
-0.228969
-0.163282
-0.0981019
-0.0328112
46.6832
46.6793
46.685
46.6987
46.7205
46.7518
46.7958
46.8488
46.9323
46.9576
47.1383
47.1372
47.2295
-0.582821
-0.48807
-0.700455
-0.453477
-0.506359
-0.427363
-0.363287
-0.297971
-0.231721
-0.165235
-0.099267
-0.0331975
46.6811
46.6767
46.6818
46.695
46.7164
46.7475
46.7916
46.8459
46.93
46.961
47.1457
47.1499
47.2454
-0.590244
-0.494937
-0.706761
-0.459269
-0.511497
-0.431836
-0.367064
-0.301044
-0.234095
-0.166919
-0.100272
-0.0335305
46.68
46.6748
46.6793
46.692
46.7131
46.744
46.7883
46.8437
46.9284
46.9642
47.1527
47.1616
47.26
-0.596503
-0.500591
-0.711922
-0.464038
-0.515716
-0.435514
-0.370171
-0.303573
-0.236049
-0.168305
-0.101099
-0.0338045
46.68
46.6737
46.6775
46.6898
46.7106
46.7413
46.7858
46.842
46.9273
46.9669
47.1588
47.1715
47.2726
-0.601501
-0.505186
-0.715872
-0.467759
-0.518961
-0.438342
-0.372558
-0.305514
-0.237548
-0.169368
-0.101733
-0.0340144
46.6799
46.673
46.6763
46.6884
46.7089
46.7396
46.7841
46.841
46.9267
46.9689
47.1632
47.1789
47.2822
-0.605163
-0.508184
-0.718517
-0.470274
-0.521158
-0.44025
-0.374174
-0.30683
-0.238564
-0.170089
-0.102163
-0.0341564
46.6857
46.6735
46.6759
46.6878
46.7082
46.7388
46.7834
46.8406
46.9266
46.9703
47.1662
47.1827
47.2885
-0.607443
-0.510507
-0.719776
-0.471686
-0.52229
-0.441215
-0.375001
-0.307502
-0.239081
-0.170456
-0.102381
-0.0342275
46.766
46.7621
46.7716
46.7911
46.8187
46.8533
46.8964
46.9267
47.0295
46.9594
47.1483
47.0729
47.1403
-0.428895
-0.340159
-0.557912
-0.32559
-0.390462
-0.326827
-0.278082
-0.22841
-0.177832
-0.126902
-0.0763398
-0.0255773
46.7596
46.7601
46.7708
46.7903
46.8179
46.8526
46.8956
46.9262
47.0287
46.9602
47.1437
47.0718
47.1403
-0.429438
-0.340165
-0.559247
-0.326488
-0.391438
-0.327691
-0.278799
-0.228995
-0.178285
-0.127224
-0.0765329
-0.0256424
46.7566
46.758
46.7689
46.7885
46.8162
46.8509
46.894
46.925
47.0269
46.9603
47.1413
47.0708
47.1405
-0.431134
-0.342855
-0.561732
-0.328671
-0.393422
-0.329413
-0.280247
-0.230174
-0.179197
-0.127871
-0.0769195
-0.0257711
46.7526
46.755
46.7662
46.7859
46.8136
46.8483
46.8914
46.923
47.024
46.9601
47.1379
47.0699
47.1404
-0.434257
-0.34609
-0.565423
-0.331813
-0.396365
-0.331961
-0.282403
-0.23193
-0.180554
-0.128835
-0.0774946
-0.0259621
46.7484
46.7514
46.7628
46.7826
46.8102
46.8448
46.8879
46.9204
47.0202
46.9595
47.1338
47.0687
47.1399
-0.438958
-0.351101
-0.570264
-0.336089
-0.400249
-0.33532
-0.28524
-0.23424
-0.182339
-0.130102
-0.0782508
-0.0262129
46.7439
46.7473
46.7587
46.7785
46.806
46.8405
46.8836
46.917
47.0154
46.9589
47.1287
47.0674
47.1392
-0.444943
-0.357001
-0.576171
-0.341307
-0.404998
-0.339436
-0.288719
-0.237073
-0.184528
-0.131655
-0.0791781
-0.0265204
46.7392
46.7427
46.7541
46.7737
46.8011
46.8355
46.8786
46.9129
47.0097
46.958
47.1233
47.066
47.1383
-0.452148
-0.364162
-0.58309
-0.347462
-0.410564
-0.344261
-0.292796
-0.240391
-0.187092
-0.133474
-0.0802639
-0.0268804
46.7342
46.7377
46.749
46.7684
46.7955
46.8298
46.8728
46.9083
47.0032
46.9558
47.1184
47.0646
47.1376
-0.460439
-0.372242
-0.590905
-0.354445
-0.416864
-0.349726
-0.297413
-0.244149
-0.189995
-0.135534
-0.0814933
-0.0272879
46.729
46.7323
46.7435
46.7626
46.7894
46.8235
46.8665
46.903
46.9961
46.9533
47.1137
47.0634
47.1371
-0.46967
-0.381208
-0.599522
-0.362163
-0.423813
-0.355757
-0.302506
-0.248294
-0.193197
-0.137806
-0.0828491
-0.0277373
46.7235
46.7268
46.7377
46.7564
46.7829
46.8167
46.8596
46.8973
46.9885
46.9504
47.1094
47.0625
47.1372
-0.479705
-0.390908
-0.608813
-0.370501
-0.431311
-0.362265
-0.308002
-0.252766
-0.196652
-0.140257
-0.0843118
-0.0282221
46.718
46.721
46.7316
46.7499
46.776
46.8095
46.8523
46.8913
46.9805
46.9474
47.1054
47.0623
47.1381
-0.490388
-0.401197
-0.618645
-0.379337
-0.439249
-0.369157
-0.313821
-0.257501
-0.200309
-0.142852
-0.08586
-0.0287353
46.7123
46.7152
46.7254
46.7433
46.7688
46.8021
46.8447
46.885
46.9723
46.9448
47.102
47.0629
47.1401
-0.501559
-0.411916
-0.62887
-0.388537
-0.447509
-0.376327
-0.319875
-0.262428
-0.204114
-0.145551
-0.0874707
-0.0292692
46.7067
46.7093
46.7191
46.7365
46.7616
46.7944
46.837
46.8786
46.9641
46.9425
47.0995
47.0648
47.1435
-0.513042
-0.422898
-0.639331
-0.397957
-0.455964
-0.383668
-0.326073
-0.26747
-0.208008
-0.148314
-0.0891191
-0.0298156
46.7012
46.7036
46.7129
46.7298
46.7543
46.7868
46.8292
46.8722
46.9562
46.9408
47.0981
47.0682
47.1487
-0.524662
-0.433971
-0.649865
-0.407452
-0.464482
-0.391063
-0.332317
-0.27255
-0.211931
-0.151097
-0.0907796
-0.030366
46.6959
46.698
46.7069
46.7232
46.7471
46.7792
46.8216
46.866
46.9486
46.9398
47.098
47.0735
47.156
-0.536232
-0.444957
-0.660303
-0.416869
-0.472928
-0.398395
-0.338508
-0.277587
-0.215821
-0.153855
-0.0924256
-0.0309116
46.6909
46.6927
46.7011
46.7168
46.7402
46.7719
46.8143
46.86
46.9417
46.9396
47.0993
47.0808
47.1655
-0.547564
-0.45568
-0.670473
-0.426055
-0.481162
-0.405543
-0.344544
-0.282498
-0.219613
-0.156545
-0.0940305
-0.0314436
46.6863
46.6878
46.6957
46.7108
46.7336
46.7649
46.8073
46.8544
46.9355
46.9401
47.1021
47.0898
47.1772
-0.55847
-0.465967
-0.680209
-0.43486
-0.489049
-0.412391
-0.350326
-0.287201
-0.223246
-0.159122
-0.0955677
-0.031953
46.6822
46.6834
46.6908
46.7053
46.7275
46.7584
46.8008
46.8493
46.9301
46.9414
47.1064
47.1004
47.1908
-0.568775
-0.475639
-0.68934
-0.443135
-0.496453
-0.418823
-0.355756
-0.291619
-0.226657
-0.161541
-0.097011
-0.0324314
46.6786
46.6795
46.6863
46.7002
46.7219
46.7525
46.7949
46.8448
46.9256
46.9433
47.1118
47.1122
47.2057
-0.578309
-0.484565
-0.697717
-0.450745
-0.50325
-0.424728
-0.360742
-0.295675
-0.229788
-0.163762
-0.098336
-0.0328705
46.6757
46.6762
46.6825
46.6958
46.7169
46.7472
46.7897
46.8408
46.9219
46.9456
47.1179
47.1242
47.2212
-0.586915
-0.492554
-0.705177
-0.457547
-0.509315
-0.430004
-0.365195
-0.299297
-0.232585
-0.165745
-0.0995195
-0.0332627
46.6737
46.6736
46.6793
46.6921
46.7127
46.7427
46.7853
46.8375
46.9191
46.948
47.1243
47.1359
47.2366
-0.594447
-0.499557
-0.711613
-0.463452
-0.514552
-0.434558
-0.369039
-0.302423
-0.234999
-0.167457
-0.10054
-0.033601
46.6725
46.6717
46.6767
46.6891
46.7093
46.7391
46.7817
46.8349
46.917
46.9504
47.1304
47.147
47.2508
-0.600803
-0.505321
-0.71688
-0.468314
-0.518853
-0.438304
-0.372202
-0.304996
-0.236985
-0.168866
-0.101381
-0.0338794
46.6726
46.6705
46.6749
46.6868
46.7067
46.7363
46.779
46.8329
46.9156
46.9525
47.1358
47.1562
47.263
-0.605877
-0.51
-0.720912
-0.472106
-0.52216
-0.441184
-0.37463
-0.306971
-0.238509
-0.169946
-0.102025
-0.0340926
46.6724
46.6698
46.6737
46.6853
46.705
46.7345
46.7772
46.8317
46.9147
46.954
47.1398
47.1632
47.2722
-0.609591
-0.513057
-0.723611
-0.474669
-0.5244
-0.443127
-0.376276
-0.30831
-0.239543
-0.170679
-0.102462
-0.0342369
46.6782
46.6704
46.6732
46.6847
46.7043
46.7337
46.7764
46.8311
46.9145
46.9547
47.1439
47.1659
47.2778
-0.611903
-0.515399
-0.724896
-0.476103
-0.52555
-0.444106
-0.377117
-0.308992
-0.240068
-0.171052
-0.102683
-0.0343091
46.7612
46.7582
46.768
46.7875
46.8151
46.8496
46.8925
46.923
47.0251
46.9563
47.1436
47.0691
47.1376
-0.432937
-0.344785
-0.561586
-0.328889
-0.392064
-0.328421
-0.278925
-0.228726
-0.177807
-0.126705
-0.0761211
-0.0254655
46.7548
46.7563
46.7671
46.7867
46.8143
46.8488
46.8917
46.9225
47.0242
46.9573
47.1382
47.068
47.1378
-0.433501
-0.344816
-0.562956
-0.329822
-0.393069
-0.329309
-0.279662
-0.229327
-0.178271
-0.127035
-0.0763184
-0.0255319
46.7518
46.7541
46.7653
46.7849
46.8125
46.847
46.89
46.9212
47.0222
46.9576
47.1354
47.0668
47.138
-0.435294
-0.347597
-0.565523
-0.332076
-0.395113
-0.33108
-0.28115
-0.230536
-0.179205
-0.127697
-0.0767138
-0.0256633
46.7477
46.7511
46.7626
46.7823
46.8098
46.8443
46.8873
46.9191
47.0191
46.9573
47.1314
47.0656
47.1378
-0.438476
-0.350956
-0.569338
-0.335324
-0.398145
-0.333702
-0.283364
-0.232337
-0.180596
-0.128683
-0.0773022
-0.0258586
46.7435
46.7474
46.7591
46.7789
46.8063
46.8408
46.8836
46.9162
47.015
46.9567
47.1265
47.0641
47.1371
-0.44334
-0.35615
-0.574344
-0.339743
-0.402147
-0.337159
-0.286279
-0.234707
-0.182426
-0.129981
-0.0780761
-0.0261152
46.739
46.7433
46.755
46.7747
46.802
46.8363
46.8791
46.9125
47.0097
46.9559
47.1206
47.0624
47.1361
-0.449526
-0.362271
-0.580456
-0.345135
-0.407043
-0.341397
-0.289856
-0.237615
-0.18467
-0.131572
-0.0790255
-0.0264298
46.7343
46.7386
46.7504
46.7699
46.797
46.8311
46.8738
46.9081
47.0035
46.954
47.1148
47.0605
47.1347
-0.456976
-0.369695
-0.587615
-0.351498
-0.412783
-0.346366
-0.294047
-0.241023
-0.1873
-0.133437
-0.0801377
-0.0267983
46.7292
46.7336
46.7452
46.7644
46.7913
46.8252
46.8677
46.903
46.9964
46.9507
47.1093
47.0583
47.1332
-0.465545
-0.378077
-0.595707
-0.358719
-0.419283
-0.351997
-0.298797
-0.244884
-0.190279
-0.135549
-0.0813975
-0.0272157
46.7239
46.7282
46.7396
46.7585
46.785
46.8186
46.861
46.8972
46.9886
46.9471
47.1034
47.0561
47.1318
-0.475088
-0.387378
-0.604631
-0.366702
-0.426457
-0.358214
-0.304039
-0.249144
-0.193567
-0.13788
-0.0827876
-0.0276763
46.7185
46.7225
46.7337
46.7522
46.7783
46.8115
46.8536
46.8909
46.9801
46.9431
47.0975
47.054
47.1307
-0.485463
-0.397444
-0.614259
-0.375331
-0.434201
-0.364926
-0.309699
-0.253744
-0.197116
-0.140396
-0.0842881
-0.0281733
46.7128
46.7167
46.7275
46.7456
46.7711
46.804
46.8458
46.8841
46.9711
46.939
47.0916
47.0523
47.1301
-0.496513
-0.408124
-0.624452
-0.384478
-0.442405
-0.372037
-0.315694
-0.258616
-0.200875
-0.143061
-0.0858772
-0.0286998
46.7071
46.7108
46.7212
46.7387
46.7637
46.7961
46.8377
46.877
46.9618
46.9348
47.086
47.0512
47.1304
-0.50807
-0.419255
-0.635058
-0.394007
-0.450945
-0.379441
-0.321937
-0.263688
-0.204789
-0.145834
-0.0875314
-0.0292478
46.7015
46.7049
46.7148
46.7318
46.7562
46.7881
46.8293
46.8696
46.9524
46.9309
47.0811
47.051
47.1318
-0.519955
-0.430664
-0.645914
-0.403769
-0.459693
-0.387024
-0.32833
-0.268883
-0.208796
-0.148675
-0.0892253
-0.029809
46.6959
46.6991
46.7085
46.7249
46.7486
46.78
46.8209
46.8623
46.9431
46.9272
47.077
47.0522
47.1347
-0.531981
-0.442169
-0.656851
-0.413612
-0.468511
-0.394667
-0.334775
-0.27412
-0.212836
-0.151538
-0.0909326
-0.0303746
46.6905
46.6935
46.7024
46.7181
46.7412
46.772
46.8126
46.8549
46.9341
46.9241
47.0741
47.0549
47.1394
-0.543955
-0.453589
-0.667692
-0.423378
-0.477258
-0.402249
-0.341168
-0.279314
-0.216843
-0.154378
-0.0926261
-0.0309357
46.6855
46.6881
46.6965
46.7116
46.734
46.7642
46.8045
46.8479
46.9257
46.9216
47.0725
47.0595
47.1461
-0.555687
-0.464738
-0.678261
-0.43291
-0.485791
-0.409646
-0.347405
-0.284382
-0.220752
-0.157148
-0.0942781
-0.031483
46.6808
46.6831
46.691
46.7054
46.7271
46.7567
46.7968
46.8411
46.9179
46.9198
47.0724
47.0659
47.1548
-0.566981
-0.475435
-0.688381
-0.442048
-0.493967
-0.416736
-0.353383
-0.289239
-0.224499
-0.159803
-0.0958611
-0.0320075
46.6766
46.6786
46.6859
46.6997
46.7207
46.7498
46.7896
46.8349
46.9111
46.9188
47.0737
47.0736
47.1654
-0.577655
-0.485496
-0.697877
-0.45064
-0.501647
-0.423396
-0.358999
-0.293803
-0.228018
-0.162297
-0.0973484
-0.0325002
46.673
46.6747
46.6814
46.6945
46.7148
46.7434
46.783
46.8292
46.9051
46.9184
47.0762
47.082
47.1774
-0.587532
-0.49478
-0.70659
-0.458543
-0.508699
-0.429514
-0.364158
-0.297993
-0.231251
-0.164588
-0.0987141
-0.0329526
46.6701
46.6713
46.6775
46.6899
46.7096
46.7377
46.7772
46.8242
46.9002
46.9186
47.0797
47.0912
47.1902
-0.596445
-0.503093
-0.714354
-0.465609
-0.514995
-0.434981
-0.368767
-0.301739
-0.23414
-0.166634
-0.0999346
-0.0333569
46.668
46.6687
46.6742
46.6861
46.7052
46.7329
46.7722
46.82
46.8962
46.9192
47.0836
47.1006
47.2029
-0.604251
-0.510374
-0.721052
-0.471741
-0.520433
-0.439703
-0.372746
-0.304971
-0.236633
-0.168401
-0.100988
-0.0337057
46.6668
46.6667
46.6716
46.683
46.7016
46.729
46.7681
46.8166
46.893
46.92
47.0876
47.1091
47.2148
-0.610832
-0.516373
-0.726536
-0.476793
-0.524899
-0.443587
-0.376022
-0.307633
-0.238685
-0.169855
-0.101855
-0.0339928
46.6668
46.6656
46.6697
46.6806
46.6989
46.726
46.765
46.814
46.8908
46.9208
47.0913
47.1164
47.225
-0.616085
-0.521233
-0.730736
-0.48073
-0.528335
-0.446574
-0.378538
-0.309676
-0.240261
-0.170971
-0.10252
-0.0342129
46.6666
46.6649
46.6685
46.6791
46.6971
46.724
46.763
46.8123
46.8894
46.9214
47.0941
47.1218
47.2327
-0.619932
-0.524417
-0.733548
-0.483393
-0.530661
-0.44859
-0.380242
-0.311061
-0.241329
-0.171728
-0.102971
-0.0343618
46.6724
46.6654
46.668
46.6784
46.6963
46.7231
46.762
46.8115
46.8888
46.9217
47.0973
47.1247
47.237
-0.622309
-0.526838
-0.734894
-0.484876
-0.531857
-0.449605
-0.381113
-0.311767
-0.241872
-0.172113
-0.1032
-0.0344364
46.7547
46.7526
46.7628
46.7822
46.8096
46.8439
46.8866
46.9173
47.0184
46.9514
47.1363
47.0639
47.133
-0.439938
-0.351442
-0.566812
-0.333747
-0.39433
-0.330651
-0.28005
-0.229076
-0.177665
-0.12633
-0.075739
-0.0252768
46.7483
46.7508
46.7618
46.7813
46.8088
46.8431
46.8857
46.9168
47.0174
46.9525
47.1303
47.0626
47.1333
-0.440697
-0.351509
-0.568242
-0.334733
-0.395379
-0.331576
-0.280816
-0.229699
-0.178146
-0.126671
-0.0759425
-0.0253451
46.7452
46.7485
46.7599
46.7795
46.8069
46.8412
46.8839
46.9153
47.0152
46.9528
47.1269
47.0611
47.1335
-0.442423
-0.354446
-0.570935
-0.337098
-0.397513
-0.333421
-0.282363
-0.230954
-0.179113
-0.127356
-0.0763509
-0.0254807
46.7411
46.7454
46.7572
46.7768
46.8042
46.8384
46.881
46.913
47.0117
46.9524
47.1221
47.0597
47.1331
-0.445797
-0.358
-0.574937
-0.340504
-0.400678
-0.336154
-0.284665
-0.232823
-0.180554
-0.128376
-0.0769591
-0.0256823
46.7369
46.7417
46.7537
46.7733
46.8005
46.8346
46.8771
46.9098
47.0071
46.9517
47.1162
47.0577
47.1319
-0.450924
-0.363475
-0.580194
-0.345138
-0.404859
-0.339758
-0.287698
-0.235283
-0.18245
-0.129719
-0.0777595
-0.0259474
46.7324
46.7375
46.7496
46.769
46.7961
46.83
46.8723
46.9057
47.0012
46.95
47.1096
47.0553
47.1302
-0.457437
-0.369934
-0.586614
-0.350796
-0.409976
-0.344179
-0.29142
-0.238304
-0.184778
-0.131367
-0.078742
-0.0262728
46.7276
46.7328
46.7448
46.7641
46.7908
46.8245
46.8666
46.9007
46.9942
46.9465
47.1033
47.0524
47.1279
-0.465274
-0.377758
-0.594139
-0.357472
-0.415979
-0.349365
-0.295785
-0.241845
-0.187507
-0.1333
-0.0798936
-0.0266541
46.7225
46.7277
46.7395
46.7585
46.7849
46.8182
46.86
46.8949
46.9862
46.9421
47.0963
47.049
47.1251
-0.474289
-0.3866
-0.60265
-0.365053
-0.422782
-0.355246
-0.300734
-0.245861
-0.190601
-0.135491
-0.0811991
-0.0270863
46.7172
46.7222
46.7338
46.7524
46.7784
46.8112
46.8527
46.8883
46.9773
46.9371
47.0886
47.0451
47.122
-0.484332
-0.396411
-0.612042
-0.373439
-0.430295
-0.361743
-0.306201
-0.250295
-0.194017
-0.13791
-0.0826406
-0.0275634
46.7116
46.7165
46.7277
46.7459
46.7713
46.8037
46.8447
46.8811
46.9675
46.9315
47.0803
47.0408
47.1187
-0.495256
-0.407035
-0.622183
-0.382509
-0.438412
-0.368764
-0.312108
-0.255086
-0.197708
-0.140523
-0.0841979
-0.028079
46.7059
46.7106
46.7214
46.7391
46.7639
46.7957
46.8361
46.8732
46.957
46.9254
47.0716
47.0365
47.1154
-0.506891
-0.418313
-0.632926
-0.39213
-0.447018
-0.376208
-0.318371
-0.260166
-0.201621
-0.143293
-0.0858486
-0.0286254
46.7001
46.7046
46.715
46.732
46.7561
46.7873
46.8271
46.8648
46.946
46.9188
47.0627
47.0323
47.1124
-0.519069
-0.430074
-0.644113
-0.402159
-0.455985
-0.383964
-0.324896
-0.265459
-0.205698
-0.146179
-0.0875682
-0.0291947
46.6944
46.6986
46.7085
46.7249
46.7482
46.7786
46.8179
46.8561
46.9346
46.9121
47.054
47.0286
47.1098
-0.531595
-0.442133
-0.655572
-0.412441
-0.465177
-0.391915
-0.331586
-0.270884
-0.209877
-0.149137
-0.0893307
-0.0297782
46.6888
46.6926
46.702
46.7177
46.7402
46.7699
46.8084
46.8472
46.9232
46.9053
47.0457
47.0258
47.1082
-0.544276
-0.454302
-0.667123
-0.422815
-0.47445
-0.399936
-0.338335
-0.276357
-0.214092
-0.152121
-0.0911087
-0.0303668
46.6833
46.6869
46.6957
46.7107
46.7323
46.7612
46.799
46.8382
46.912
46.8988
47.0381
47.0241
47.1079
-0.556908
-0.466386
-0.678582
-0.433115
-0.483656
-0.407899
-0.345036
-0.281792
-0.218278
-0.155084
-0.0928738
-0.0309512
46.6782
46.6815
46.6897
46.7039
46.7247
46.7527
46.7898
46.8293
46.9012
46.8927
47.0317
47.024
47.1091
-0.569289
-0.478186
-0.68976
-0.443172
-0.492644
-0.415673
-0.351578
-0.287098
-0.222364
-0.157976
-0.0945971
-0.0315217
46.6735
46.6764
46.684
46.6974
46.7174
46.7445
46.781
46.8208
46.891
46.8872
47.0267
47.0247
47.1122
-0.581208
-0.489513
-0.700469
-0.452821
-0.501263
-0.423129
-0.357853
-0.292187
-0.226283
-0.16075
-0.0962496
-0.0320688
46.6692
46.6718
46.6788
46.6914
46.7105
46.7369
46.7727
46.8128
46.8818
46.8825
47.023
47.0269
47.117
-0.592479
-0.50017
-0.710523
-0.461896
-0.509363
-0.430139
-0.363752
-0.296971
-0.229968
-0.163357
-0.0978033
-0.0325831
46.6656
46.6678
46.6742
46.686
46.7043
46.7298
46.765
46.8055
46.8736
46.8786
47.0208
47.0302
47.1232
-0.602905
-0.510004
-0.719753
-0.470247
-0.516805
-0.436581
-0.369174
-0.301368
-0.233354
-0.165754
-0.0992311
-0.0330558
46.6626
46.6644
46.6701
46.6813
46.6988
46.7236
46.7582
46.7989
46.8664
46.8755
47.0197
47.0343
47.1303
-0.612314
-0.518809
-0.72798
-0.477715
-0.523453
-0.442341
-0.374021
-0.305299
-0.236381
-0.167896
-0.100508
-0.0334784
46.6604
46.6616
46.6667
46.6772
46.694
46.7182
46.7524
46.7932
46.8604
46.8731
47.0195
47.0387
47.1377
-0.620553
-0.526517
-0.735081
-0.484198
-0.529197
-0.447318
-0.378208
-0.308694
-0.238996
-0.169747
-0.10161
-0.0338432
46.6592
46.6596
46.664
46.6739
46.6902
46.7138
46.7476
46.7886
46.8556
46.8713
47.0198
47.0428
47.1448
-0.627494
-0.53287
-0.740897
-0.489539
-0.533917
-0.451412
-0.381655
-0.311491
-0.241149
-0.171271
-0.102518
-0.0341437
46.6592
46.6584
46.6621
46.6715
46.6872
46.7105
46.7439
46.7851
46.852
46.8701
47.0205
47.0464
47.1509
-0.633032
-0.538001
-0.745353
-0.493699
-0.537549
-0.454562
-0.384304
-0.313638
-0.242802
-0.17244
-0.103215
-0.0343741
46.6589
46.6577
46.6608
46.6699
46.6853
46.7083
46.7415
46.7827
46.8496
46.8694
47.021
47.049
47.1553
-0.63708
-0.541372
-0.748337
-0.496514
-0.540008
-0.456689
-0.386099
-0.315094
-0.243923
-0.173234
-0.103687
-0.0345301
46.6647
46.6583
46.6603
46.6692
46.6844
46.7073
46.7404
46.7817
46.8484
46.8692
47.022
47.0507
47.1575
-0.639573
-0.543887
-0.749771
-0.498071
-0.541272
-0.45776
-0.387015
-0.315836
-0.244494
-0.173638
-0.103927
-0.0346085
46.7472
46.7456
46.7559
46.7752
46.8023
46.8363
46.8787
46.9098
47.0094
46.9447
47.1268
47.0567
47.1265
-0.449595
-0.360458
-0.573632
-0.340185
-0.397242
-0.333458
-0.281397
-0.229405
-0.177361
-0.125743
-0.0751738
-0.0250047
46.7408
46.7438
46.7549
46.7743
46.8015
46.8354
46.8778
46.9091
47.0083
46.9458
47.1203
47.0553
47.1267
-0.450398
-0.360566
-0.575141
-0.34124
-0.398348
-0.334433
-0.282202
-0.230057
-0.177864
-0.126098
-0.0753854
-0.0250755
46.7377
46.7415
46.753
46.7725
46.7995
46.8335
46.8758
46.9075
47.0058
46.9461
47.1162
47.0536
47.1268
-0.452343
-0.36372
-0.578003
-0.343753
-0.400603
-0.336376
-0.283827
-0.231372
-0.178875
-0.126813
-0.075811
-0.0252166
46.7335
46.7384
46.7502
46.7697
46.7967
46.8305
46.8726
46.9048
47.0019
46.9456
47.1104
47.0516
47.1259
-0.455951
-0.367538
-0.582261
-0.347375
-0.403948
-0.339257
-0.286247
-0.233331
-0.180382
-0.127878
-0.0764453
-0.0254266
46.7293
46.7346
46.7467
46.766
46.7929
46.8265
46.8685
46.9012
46.9966
46.9441
47.1036
47.049
47.1241
-0.461439
-0.373396
-0.587857
-0.3523
-0.408368
-0.34306
-0.289436
-0.235912
-0.182367
-0.129282
-0.0772808
-0.025703
46.7248
46.7303
46.7424
46.7616
46.7882
46.8215
46.8632
46.8965
46.9899
46.9408
47.0966
47.0456
47.1214
-0.468406
-0.380314
-0.594695
-0.358315
-0.413783
-0.347725
-0.293352
-0.239082
-0.184805
-0.131006
-0.0783071
-0.0260425
46.7199
46.7255
46.7375
46.7565
46.7827
46.8157
46.857
46.8908
46.982
46.936
47.0888
47.0413
47.1177
-0.476787
-0.388682
-0.602715
-0.365416
-0.42014
-0.353202
-0.297949
-0.242802
-0.187666
-0.133028
-0.0795112
-0.0264408
46.7147
46.7203
46.7321
46.7507
46.7765
46.809
46.8498
46.8842
46.9728
46.9302
47.0798
47.036
47.1131
-0.486424
-0.398149
-0.611794
-0.373483
-0.42735
-0.359419
-0.303166
-0.247024
-0.190912
-0.135324
-0.0808775
-0.0268926
46.7093
46.7147
46.7263
46.7444
46.7696
46.8015
46.8417
46.8765
46.9624
46.9233
47.0695
47.0297
47.1075
-0.497162
-0.408655
-0.621822
-0.382414
-0.435321
-0.366293
-0.308934
-0.251691
-0.194501
-0.13786
-0.0823875
-0.027392
46.7037
46.7089
46.72
46.7377
46.7622
46.7934
46.8328
46.868
46.9509
46.9154
47.058
47.0223
47.1009
-0.508844
-0.42004
-0.632659
-0.392081
-0.443942
-0.373729
-0.315173
-0.256739
-0.198382
-0.140604
-0.0840206
-0.0279321
46.6979
46.7029
46.7136
46.7306
46.7543
46.7847
46.8233
46.8586
46.9383
46.9065
47.0453
47.0141
47.0934
-0.521299
-0.432133
-0.64415
-0.402346
-0.453092
-0.381622
-0.321795
-0.262097
-0.202501
-0.143515
-0.0857536
-0.0285053
46.692
46.6968
46.7069
46.7232
46.7461
46.7755
46.8132
46.8486
46.9249
46.8965
47.0317
47.0052
47.0851
-0.534338
-0.444752
-0.656127
-0.413054
-0.462636
-0.389854
-0.328703
-0.267686
-0.206797
-0.146552
-0.087561
-0.029103
46.6862
46.6906
46.7002
46.7157
46.7376
46.7661
46.8026
46.838
46.9109
46.8858
47.0175
46.9961
47.0762
-0.54776
-0.457701
-0.668408
-0.424043
-0.47243
-0.398303
-0.335792
-0.273422
-0.211206
-0.149668
-0.0894156
-0.0297164
46.6805
46.6846
46.6936
46.7082
46.7291
46.7565
46.7919
46.8269
46.8965
46.8746
47.0029
46.9869
47.0671
-0.561355
-0.470775
-0.680799
-0.435139
-0.482322
-0.406835
-0.342952
-0.279215
-0.215658
-0.152815
-0.0912886
-0.0303359
46.675
46.6787
46.6871
46.7009
46.7207
46.7469
46.781
46.8157
46.8821
46.8632
46.9886
46.978
47.0585
-0.574907
-0.483766
-0.693101
-0.446166
-0.492153
-0.415315
-0.350069
-0.284973
-0.220084
-0.155942
-0.09315
-0.0309516
46.6698
46.6731
46.6809
46.6938
46.7125
46.7375
46.7703
46.8045
46.8679
46.8519
46.975
46.9693
47.0506
-0.588193
-0.49646
-0.705111
-0.456942
-0.501759
-0.423602
-0.357025
-0.290601
-0.22441
-0.158999
-0.0949692
-0.0315533
46.6649
46.668
46.675
46.687
46.7046
46.7284
46.76
46.7936
46.8542
46.8411
46.9625
46.9613
47.0439
-0.600993
-0.50865
-0.716626
-0.467287
-0.51098
-0.431557
-0.363703
-0.296004
-0.228562
-0.161934
-0.0967157
-0.032131
46.6606
46.6632
46.6696
46.6807
46.6973
46.7199
46.7502
46.7831
46.8415
46.8311
46.9515
46.9546
47.0386
-0.613093
-0.520122
-0.727445
-0.477023
-0.519653
-0.439041
-0.369987
-0.301089
-0.23247
-0.164695
-0.0983591
-0.0326746
46.6569
46.6591
46.6648
46.675
46.6905
46.712
46.7412
46.7735
46.8298
46.822
46.942
46.9489
47.0347
-0.624293
-0.530707
-0.737381
-0.485985
-0.527628
-0.445926
-0.375767
-0.305766
-0.236064
-0.167235
-0.0998706
-0.0331745
46.6538
46.6556
46.6606
46.6699
46.6845
46.705
46.7331
46.7648
46.8195
46.814
46.9341
46.9442
47.0319
-0.634394
-0.540188
-0.746244
-0.494004
-0.534756
-0.452085
-0.380938
-0.30995
-0.23928
-0.169507
-0.101223
-0.0336219
46.6516
46.6528
46.657
46.6657
46.6794
46.6989
46.7261
46.7573
46.8107
46.8071
46.9275
46.9403
47.0299
-0.643235
-0.54848
-0.753897
-0.500965
-0.540919
-0.457409
-0.385407
-0.313566
-0.242059
-0.17147
-0.102392
-0.0340084
46.6503
46.6507
46.6543
46.6622
46.6752
46.694
46.7204
46.7511
46.8035
46.8015
46.9221
46.9369
47.0281
-0.650665
-0.555317
-0.760166
-0.5067
-0.545985
-0.461791
-0.389089
-0.316546
-0.244349
-0.173089
-0.103355
-0.0343269
46.6502
46.6495
46.6522
46.6596
46.672
46.6902
46.716
46.7463
46.7979
46.7972
46.918
46.9339
47.0262
-0.656593
-0.560818
-0.764974
-0.511165
-0.549885
-0.465164
-0.391918
-0.318834
-0.246108
-0.174331
-0.104094
-0.0345713
46.65
46.6487
46.6509
46.6579
46.6699
46.6877
46.713
46.7431
46.794
46.7944
46.9148
46.9314
47.0242
-0.66093
-0.564446
-0.768194
-0.514188
-0.552525
-0.467441
-0.393836
-0.320387
-0.247301
-0.175175
-0.104596
-0.034737
46.6557
46.6493
46.6504
46.6571
46.669
46.6865
46.7116
46.7416
46.7921
46.7933
46.9138
46.9291
47.0225
-0.663579
-0.567091
-0.769751
-0.515849
-0.553883
-0.468588
-0.394816
-0.321178
-0.247909
-0.175604
-0.104851
-0.0348205
46.7386
46.7373
46.7475
46.7666
46.7934
46.8269
46.8689
46.9003
46.9983
46.9363
47.1149
47.0477
47.1181
-0.461929
-0.371839
-0.582012
-0.348202
-0.400771
-0.336757
-0.282884
-0.229637
-0.176834
-0.124899
-0.0743985
-0.0246403
46.7322
46.7354
46.7465
46.7657
46.7924
46.826
46.8679
46.8995
46.997
46.9376
47.1079
47.0462
47.1183
-0.462956
-0.371997
-0.583625
-0.349345
-0.401951
-0.337793
-0.283737
-0.230326
-0.177363
-0.125272
-0.07462
-0.0247141
46.7291
46.7331
46.7446
46.7637
46.7904
46.8239
46.8657
46.8977
46.9941
46.9378
47.1029
47.0441
47.118
-0.464873
-0.375435
-0.586703
-0.352048
-0.404358
-0.33986
-0.285459
-0.231715
-0.178429
-0.126024
-0.0750668
-0.024862
46.7249
46.7299
46.7417
46.7609
46.7874
46.8207
46.8623
46.8946
46.9896
46.9367
47.0964
47.0416
47.1166
-0.468836
-0.37959
-0.591285
-0.355943
-0.407929
-0.342927
-0.288026
-0.233786
-0.180018
-0.127145
-0.0757336
-0.0250823
46.7206
46.7261
46.7381
46.7571
46.7834
46.8164
46.8577
46.8905
46.9835
46.9337
47.0893
47.0381
47.1139
-0.474788
-0.385938
-0.597312
-0.361234
-0.41265
-0.346976
-0.29141
-0.236517
-0.182113
-0.128624
-0.0766126
-0.0253728
46.716
46.7217
46.7337
46.7525
46.7785
46.8111
46.852
46.8851
46.976
46.9289
47.0811
47.0334
47.1098
-0.482334