/*--------------------------------*- C++ -*----------------------------------*\
| =========                 |                                                 |
| \\      /  F ield         | OpenFOAM: The Open Source CFD Toolbox           |
|  \\    /   O peration     | Version:  2306                                  |
|   \\  /    A nd           | Website:  www.openfoam.com                      |
|    \\/     M anipulation  |                                                 |
\*---------------------------------------------------------------------------*/
FoamFile
{
    version     2.0;
    format      ascii;
    arch        "LSB;label=32;scalar=64";
    class       volScalarField;
    location    "1.2";
    object      p;
}
// * * * * * * * * * * * * * * * * * * * * * * * * * * * * * * * * * * * * * //

dimensions      [0 2 -2 0 0 0 0];

internalField   nonuniform List<scalar> 
288632
(
39.6709
39.663
39.6719
39.6916
39.7198
39.7554
39.7976
39.8385
39.9258
39.769
40.1406
39.8862
40.0139
0.132442
0.259576
-0.1652
0.107585
0.0189767
0.0155468
0.016088
0.0149215
0.0126666
0.00959321
0.00552365
0.00167202
39.6649
39.6613
39.6709
39.6907
39.719
39.7546
39.7969
39.838
39.9249
39.7687
40.1396
39.885
40.0139
0.13239
0.260331
-0.166226
0.107132
0.0183519
0.0149616
0.0155913
0.0145142
0.0123498
0.00936767
0.00538766
0.00162534
39.6612
39.6588
39.669
39.6889
39.7172
39.7529
39.7953
39.8367
39.9228
39.7689
40.138
39.8839
40.0138
0.131322
0.257915
-0.168076
0.105471
0.016952
0.0137749
0.0145908
0.013697
0.011716
0.00891657
0.00511747
0.00153521
39.6571
39.6556
39.6661
39.6861
39.7144
39.7502
39.7928
39.8346
39.9196
39.7689
40.1353
39.8831
40.0137
0.129473
0.256566
-0.17046
0.103431
0.0149737
0.012024
0.0131042
0.0124818
0.0107738
0.00824612
0.00471643
0.00140184
39.6528
39.6517
39.6625
39.6826
39.7108
39.7466
39.7894
39.8318
39.9154
39.769
40.1317
39.882
40.0133
0.126739
0.252817
-0.173802
0.100502
0.0123402
0.00972035
0.0111498
0.0108845
0.00953558
0.00736525
0.00418981
0.00122691
39.6481
39.6473
39.6582
39.6782
39.7064
39.7422
39.7852
39.8283
39.9102
39.7691
40.1275
39.8808
40.0127
0.122717
0.249037
-0.17779
0.0969075
0.00911341
0.00689626
0.0087535
0.00892646
0.00801796
0.00628577
0.00354465
0.00101273
39.643
39.6423
39.6532
39.6731
39.7012
39.737
39.7801
39.8241
39.9043
39.7696
40.1226
39.8795
40.0122
0.117864
0.244263
-0.182463
0.0926703
0.00533195
0.00358842
0.00594736
0.006634
0.00624149
0.00502238
0.0027897
0.000762177
39.6376
39.6369
39.6477
39.6675
39.6954
39.7311
39.7744
39.8191
39.8976
39.7705
40.1172
39.8784
40.0118
0.11226
0.238796
-0.187746
0.0878488
0.00104653
-0.000158586
0.00276952
0.0040385
0.00423061
0.00359253
0.00193539
0.000478708
39.6319
39.6311
39.6418
39.6613
39.6889
39.7245
39.768
39.8136
39.8903
39.771
40.1126
39.8779
40.012
0.105995
0.232711
-0.193575
0.0825112
-0.00368441
-0.00429315
-0.000735917
0.00117619
0.00201352
0.00201629
0.000993721
0.000166314
39.626
39.6251
39.6355
39.6547
39.682
39.7174
39.761
39.8075
39.8826
39.7712
40.1091
39.8782
40.0131
0.0991641
0.226103
-0.199865
0.0767354
-0.00879463
-0.00875698
-0.00451924
-0.00191215
-0.000378091
0.000316262
-2.17901e-05
-0.000170524
39.6199
39.6188
39.6289
39.6477
39.6746
39.7098
39.7535
39.8009
39.8748
39.7724
40.1059
39.8796
40.0153
0.0918661
0.219072
-0.206532
0.0706067
-0.0142108
-0.0134856
-0.00852555
-0.00518153
-0.00290932
-0.0014827
-0.00109627
-0.000526881
39.6138
39.6125
39.6222
39.6405
39.6671
39.702
39.7457
39.794
39.8672
39.7745
40.1036
39.8824
40.0191
0.0842189
0.211726
-0.213477
0.0642177
-0.0198529
-0.018409
-0.0126953
-0.0085833
-0.00554243
-0.00335371
-0.00221364
-0.000897443
39.6076
39.6061
39.6154
39.6333
39.6593
39.6939
39.7378
39.787
39.8599
39.7778
40.1024
39.887
40.0249
0.0763313
0.204179
-0.220596
0.0576666
-0.0256354
-0.0234524
-0.0169652
-0.0120657
-0.00823732
-0.00526823
-0.00335687
-0.00127656
39.6016
39.5999
39.6087
39.6261
39.6516
39.6858
39.7298
39.78
39.8531
39.7821
40.1028
39.8937
40.0331
0.0683337
0.196549
-0.22778
0.0510554
-0.0314686
-0.0285375
-0.0212687
-0.0155745
-0.010952
-0.00719646
-0.00450815
-0.00165832
39.5958
39.5938
39.6022
39.619
39.644
39.6779
39.7219
39.7733
39.8471
39.7877
40.1049
39.9028
40.0438
0.060332
0.188946
-0.234917
0.0444886
-0.0372602
-0.0335835
-0.0255377
-0.0190542
-0.0136435
-0.00910782
-0.00564924
-0.00203669
39.5903
39.5881
39.596
39.6122
39.6366
39.6702
39.7143
39.7668
39.8421
39.7945
40.109
39.9144
40.0573
0.0524815
0.181486
-0.241894
0.0380717
-0.0429168
-0.0385089
-0.0297031
-0.0224485
-0.0162683
-0.0109715
-0.00676171
-0.00240555
39.5852
39.5827
39.5901
39.6057
39.6296
39.6629
39.7072
39.7609
39.838
39.8024
40.1149
39.9283
40.0735
0.0448524
0.174279
-0.248592
0.0319033
-0.0483442
-0.0432323
-0.0336964
-0.0257015
-0.0187833
-0.0127568
-0.00782729
-0.0027588
39.5807
39.5778
39.5848
39.5998
39.6231
39.6561
39.7007
39.7557
39.835
39.8112
40.1225
39.9443
40.0922
0.0376563
0.167388
-0.254904
0.026083
-0.0534509
-0.047674
-0.0374504
-0.0287587
-0.0211463
-0.0144339
-0.00882812
-0.00309052
39.5767
39.5736
39.58
39.5944
39.6173
39.65
39.6948
39.7511
39.8329
39.8206
40.1314
39.9619
40.1127
0.0309433
0.160156
-0.260719
0.0207038
-0.0581481
-0.051757
-0.0409005
-0.0315677
-0.023317
-0.0159742
-0.0097471
-0.00339505
39.5735
39.5699
39.5758
39.5897
39.6121
39.6446
39.6897
39.7473
39.8317
39.8301
40.141
39.9803
40.1344
0.0252922
0.156757
-0.265742
0.0158645
-0.0623486
-0.0554088
-0.0439862
-0.0340796
-0.0252575
-0.0173508
-0.0105683
-0.00366707
39.5711
39.5671
39.5723
39.5857
39.6077
39.64
39.6854
39.7443
39.8311
39.8393
40.1508
39.9986
40.1559
0.0198841
0.150714
-0.270286
0.0112895
-0.0659768
-0.0585626
-0.0466522
-0.0362494
-0.0269333
-0.0185394
-0.0112771
-0.00390178
39.5697
39.565
39.5696
39.5825
39.6041
39.6363
39.682
39.742
39.831
39.8476
40.1601
40.0153
40.176
0.0154914
0.14713
-0.273429
0.00929349
-0.0688037
-0.0611545
-0.0488498
-0.0380379
-0.0283142
-0.0195185
-0.0118608
-0.00409494
39.5694
39.5637
39.5676
39.5801
39.6014
39.6336
39.6795
39.7404
39.8311
39.8545
40.1681
40.0295
40.1932
0.0118056
0.143071
-0.276695
0.00526236
-0.0715508
-0.0631983
-0.0505424
-0.0394124
-0.0293748
-0.0202701
-0.0123088
-0.00424301
39.5697
39.563
39.5664
39.5785
39.5997
39.6318
39.6779
39.7395
39.8313
39.8595
40.1738
40.0401
40.2065
0.00906885
0.141285
-0.278237
0.00410297
-0.0726517
-0.0644793
-0.051681
-0.0403446
-0.0300946
-0.0207802
-0.0126126
-0.00434323
39.5748
39.5634
39.5659
39.5779
39.5989
39.6309
39.6772
39.7392
39.8316
39.8625
40.1777
40.0454
40.2153
0.00730841
0.138924
-0.279031
0.00268895
-0.0735576
-0.0652453
-0.0522941
-0.0408316
-0.0304665
-0.0210425
-0.0127665
-0.00439275
39.6642
39.6605
39.6702
39.6899
39.7181
39.7536
39.7958
39.8368
39.9236
39.7672
40.1381
39.8838
40.0128
0.131991
0.25965
-0.165768
0.106415
0.0186844
0.0153489
0.01602
0.0149519
0.0127594
0.009711
0.00562569
0.0017181
39.6582
39.6587
39.6691
39.689
39.7172
39.7528
39.7951
39.8362
39.9226
39.7679
40.1339
39.8824
40.0127
0.131976
0.260361
-0.166803
0.105943
0.0180427
0.0147509
0.0155152
0.0145385
0.0124382
0.00948238
0.00548793
0.0016709
39.6545
39.6563
39.6672
39.6872
39.7154
39.751
39.7935
39.8349
39.9205
39.7684
40.1314
39.8813
40.0128
0.130893
0.257914
-0.168684
0.10426
0.0166278
0.0135473
0.0145003
0.01371
0.0117959
0.0090255
0.00521439
0.00157971
39.6504
39.6531
39.6643
39.6844
39.7126
39.7483
39.7909
39.8327
39.9172
39.7685
40.128
39.8802
40.0126
0.129014
0.256502
-0.171117
0.102173
0.014614
0.0117691
0.012992
0.012478
0.0108412
0.00834647
0.00480837
0.00144473
39.6461
39.6492
39.6607
39.6808
39.709
39.7447
39.7874
39.8298
39.9128
39.7685
40.1241
39.879
40.0122
0.126229
0.252709
-0.174507
0.0991976
0.0119387
0.00943007
0.0110091
0.0108585
0.00958645
0.00745423
0.00427517
0.00126768
39.6414
39.6447
39.6563
39.6764
39.7045
39.7402
39.783
39.8261
39.9074
39.7687
40.1193
39.8776
40.0115
0.122155
0.24884
-0.178566
0.0955396
0.00865955
0.00656239
0.00857756
0.00887294
0.00804834
0.00636069
0.00362183
0.00105085
39.6363
39.6397
39.6513
39.6713
39.6992
39.7349
39.7778
39.8217
39.9012
39.7692
40.1137
39.8761
40.0108
0.117231
0.243976
-0.183322
0.0912279
0.00481598
0.00320285
0.00572965
0.00654785
0.00624759
0.00508061
0.00285717
0.000797162
39.6309
39.6343
39.6458
39.6655
39.6933
39.7288
39.7719
39.8165
39.8942
39.7694
40.1082
39.8747
40.0103
0.111545
0.238405
-0.1887
0.0863209
0.000459245
-0.000603477
0.00250384
0.00391487
0.00420883
0.00363159
0.0019917
0.000510099
39.6252
39.6285
39.6398
39.6593
39.6867
39.7221
39.7653
39.8106
39.8865
39.769
40.1035
39.8738
40.0102
0.105187
0.232203
-0.194635
0.0808881
-0.00435155
-0.00480446
-0.00105532
0.00101061
0.00196053
0.00203386
0.00103752
0.000193684
39.6192
39.6224
39.6334
39.6526
39.6797
39.7148
39.758
39.8041
39.8784
39.769
40.0991
39.8735
40.0109
0.0982531
0.225467
-0.201042
0.075008
-0.00954932
-0.0093411
-0.00489755
-0.00212373
-0.000465331
0.000310252
8.29992e-06
-0.000147566
39.6131
39.6161
39.6268
39.6455
39.6722
39.707
39.7503
39.7972
39.87
39.7697
40.095
39.8743
40.0127
0.0908481
0.218297
-0.207834
0.0687672
-0.0150597
-0.0141481
-0.00896726
-0.00544262
-0.00303344
-0.00151409
-0.00108094
-0.000508686
39.6069
39.6097
39.62
39.6383
39.6645
39.699
39.7422
39.7898
39.8618
39.7712
40.0917
39.8763
40.0159
0.083081
0.210805
-0.214912
0.0622599
-0.0208014
-0.0191544
-0.0132041
-0.0088968
-0.00570559
-0.00341194
-0.00221394
-0.000884306
39.6008
39.6033
39.6132
39.6309
39.6566
39.6907
39.7339
39.7823
39.8538
39.7737
40.0896
39.8801
40.021
0.0750736
0.203107
-0.222168
0.0555861
-0.0266876
-0.0242842
-0.0175438
-0.0124338
-0.0084411
-0.0053544
-0.00337344
-0.0012687
39.5947
39.597
39.6065
39.6236
39.6487
39.6824
39.7255
39.7748
39.8464
39.7772
40.0888
39.8858
40.0284
0.0669442
0.195322
-0.229491
0.0488497
-0.0326269
-0.0294575
-0.0219189
-0.0159985
-0.0111974
-0.00731124
-0.0045414
-0.00165589
39.5889
39.5909
39.5999
39.6164
39.641
39.6742
39.7173
39.7675
39.8396
39.7819
40.0898
39.8939
40.0384
0.0588214
0.187571
-0.236767
0.0421573
-0.0385251
-0.0345925
-0.0262599
-0.0195345
-0.0139309
-0.00925146
-0.00569931
-0.00203971
39.5834
39.5851
39.5936
39.6095
39.6334
39.6663
39.7093
39.7605
39.8338
39.7877
40.0926
39.9043
40.0511
0.050835
0.179975
-0.243878
0.0356157
-0.0442867
-0.0396059
-0.0304967
-0.0229846
-0.0165973
-0.0111437
-0.00682847
-0.00241397
39.5783
39.5797
39.5877
39.603
39.6263
39.6587
39.7019
39.754
39.829
39.7946
40.0973
39.9172
40.0666
0.0431212
0.172649
-0.250707
0.0293301
-0.0498164
-0.0444149
-0.0345595
-0.026292
-0.0191527
-0.0129569
-0.00791028
-0.00277248
39.5737
39.5748
39.5822
39.5969
39.6197
39.6517
39.6949
39.7482
39.8252
39.8023
40.1036
39.9321
40.0845
0.03579
0.165686
-0.257143
0.0234011
-0.0550206
-0.0489383
-0.0383799
-0.0294011
-0.0215544
-0.0146606
-0.00892658
-0.0031092
39.5697
39.5705
39.5774
39.5915
39.6136
39.6454
39.6887
39.7431
39.8224
39.8107
40.1112
39.9487
40.1044
0.0290027
0.158336
-0.263086
0.0179204
-0.0598089
-0.0530979
-0.0418921
-0.0322585
-0.0237611
-0.0162256
-0.00985998
-0.00341839
39.5665
39.5669
39.5732
39.5867
39.6083
39.6398
39.6833
39.7389
39.8205
39.8194
40.1198
39.9663
40.1254
0.0232149
0.154492
-0.268256
0.0129799
-0.0640948
-0.0568199
-0.0450343
-0.0348143
-0.0257342
-0.0176247
-0.0106942
-0.00369464
39.5641
39.564
39.5697
39.5826
39.6038
39.635
39.6788
39.7355
39.8193
39.8277
40.1288
39.9837
40.1464
0.0176816
0.148448
-0.272932
0.00819618
-0.0678065
-0.0600359
-0.0477499
-0.0370227
-0.0274386
-0.0188328
-0.0114145
-0.00393305
39.5626
39.5618
39.5669
39.5794
39.6002
39.6312
39.6752
39.7329
39.8187
39.8354
40.1374
39.9996
40.1663
0.0132371
0.144816
-0.276089
0.00608668
-0.0706763
-0.0626754
-0.0499884
-0.0388433
-0.0288433
-0.0198282
-0.0120077
-0.00412932
39.5623
39.5605
39.5649
39.5769
39.5974
39.6283
39.6725
39.731
39.8185
39.8417
40.1448
40.0131
40.1833
0.00950308
0.140738
-0.279453
0.00235609
-0.0735001
-0.06476
-0.0517134
-0.0402426
-0.0299222
-0.0205925
-0.012463
-0.0042798
39.5626
39.5599
39.5637
39.5754
39.5956
39.6264
39.6707
39.7299
39.8184
39.8462
40.1504
40.0232
40.1965
0.00671823
0.138897
-0.281012
0.000951566
-0.0746177
-0.0660742
-0.0528738
-0.0411917
-0.0306546
-0.0211113
-0.0127719
-0.00438164
39.5677
39.5603
39.5632
39.5746
39.5948
39.6256
39.6699
39.7295
39.8186
39.8487
40.1549
40.0294
40.2049
0.00494446
0.136558
-0.281826
-0.000463677
-0.0755427
-0.0668534
-0.0534978
-0.0416876
-0.0310331
-0.0213778
-0.0129282
-0.00443196
39.659
39.6566
39.6666
39.6864
39.7145
39.7499
39.7921
39.8331
39.919
39.7643
40.1335
39.8799
40.01
0.130983
0.257607
-0.166557
0.10418
0.0183207
0.0151996
0.016096
0.0151909
0.0130878
0.0100521
0.00589893
0.00183742
39.6529
39.6548
39.6656
39.6855
39.7136
39.7491
39.7913
39.8325
39.918
39.7653
40.1284
39.8784
40.01
0.130949
0.258313
-0.1676
0.103676
0.0176576
0.0145825
0.0155765
0.0147663
0.0127583
0.00981787
0.00575796
0.0017893
39.6493
39.6523
39.6636
39.6836
39.7117
39.7472
39.7895
39.831
39.9156
39.7658
40.1253
39.8771
40.0102
0.129833
0.255812
-0.169542
0.101951
0.0162034
0.0133446
0.0145332
0.0139155
0.0120995
0.00934964
0.00547786
0.00169599
39.6452
39.649
39.6607
39.6808
39.7089
39.7444
39.7868
39.8287
39.9121
39.7659
40.1213
39.8758
40.0099
0.127899
0.254301
-0.172063
0.0997759
0.0141243
0.0115142
0.0129824
0.0126501
0.01112
0.00865358
0.00506199
0.00155784
39.6408
39.6451
39.657
39.6771
39.7051
39.7406
39.7831
39.8255
39.9074
39.7658
40.1166
39.8742
40.0092
0.125002
0.250408
-0.175554
0.0967019
0.0113647
0.0091043
0.0109426
0.0109864
0.0098323
0.00773875
0.00451567
0.00137656
39.636
39.6406
39.6526
39.6726
39.7005
39.7359
39.7785
39.8215
39.9016
39.7658
40.1108
39.8723
40.0082
0.120782
0.246361
-0.179757
0.0929166
0.00798069
0.00614978
0.00844086
0.00894598
0.00825338
0.00661717
0.00384605
0.00115449
39.6309
39.6355
39.6475
39.6674
39.6951
39.7304
39.773
39.8166
39.8948
39.7658
40.1043
39.8702
40.007
0.115684
0.241317
-0.184678
0.0884552
0.00401265
0.00268698
0.00550955
0.00655579
0.0064042
0.00530382
0.00306205
0.000894574
39.6255
39.63
39.6419
39.6615
39.689
39.724
39.7667
39.8108
39.8871
39.7649
40.0981
39.8681
40.0057
0.109804
0.235534
-0.190249
0.083377
-0.000487181
-0.00123797
0.0021879
0.00384801
0.00430979
0.00381652
0.00217433
0.000600348
39.6197
39.6242
39.6358
39.6551
39.6822
39.717
39.7596
39.8043
39.8786
39.7636
40.0921
39.8661
40.0047
0.103228
0.229096
-0.196397
0.0777529
-0.00545836
-0.00557191
-0.0014787
0.000859896
0.00199909
0.00217589
0.00119523
0.000275894
39.6137
39.618
39.6293
39.6483
39.6749
39.7094
39.7518
39.7971
39.8695
39.7628
40.0858
39.8647
40.0041
0.0960527
0.2221
-0.20304
0.0716634
-0.0108321
-0.0102545
-0.00543886
-0.00236648
-0.000495274
0.000405193
0.000138628
-7.4193e-05
39.6075
39.6117
39.6226
39.6411
39.6672
39.7012
39.7435
39.7893
39.8601
39.7623
40.0797
39.8639
40.0043
0.0883868
0.214653
-0.210083
0.0651973
-0.0165319
-0.0152188
-0.00963567
-0.00578458
-0.0031372
-0.00146987
-0.000980111
-0.000444848
39.6013
39.6052
39.6157
39.6336
39.6592
39.6927
39.7347
39.781
39.8505
39.7625
40.074
39.8643
40.0057
0.0803429
0.206868
-0.217427
0.058452
-0.0224743
-0.0203917
-0.0140072
-0.00934385
-0.00588754
-0.00342146
-0.00214437
-0.000830576
39.5951
39.5987
39.6088
39.6261
39.651
39.684
39.7257
39.7725
39.8412
39.7634
40.0692
39.866
40.0087
0.0720448
0.198865
-0.224961
0.051531
-0.0285693
-0.0256949
-0.0184872
-0.0129903
-0.00870454
-0.00541993
-0.00333647
-0.00122551
39.5889
39.5923
39.6019
39.6186
39.6428
39.6752
39.7167
39.7639
39.8322
39.7651
40.0657
39.8696
40.0136
0.0636222
0.190771
-0.232568
0.0445424
-0.0347225
-0.0310461
-0.023006
-0.0166674
-0.0115444
-0.00743421
-0.00453786
-0.00162351
39.583
39.5862
39.5952
39.6112
39.6347
39.6666
39.7077
39.7554
39.8239
39.7678
40.0636
39.8752
40.0209
0.0552093
0.182715
-0.240128
0.0375967
-0.040836
-0.0363602
-0.027492
-0.0203166
-0.0143622
-0.00943238
-0.00572951
-0.00201825
39.5775
39.5803
39.5888
39.6041
39.6269
39.6581
39.699
39.7472
39.8164
39.7715
40.0633
39.8833
40.0309
0.0469357
0.174831
-0.247517
0.0308058
-0.0468106
-0.0415511
-0.0318727
-0.0238791
-0.0171122
-0.0113821
-0.00689216
-0.00240334
39.5723
39.5748
39.5828
39.5974
39.6195
39.6501
39.6907
39.7396
39.81
39.7763
40.0648
39.8936
40.0436
0.0389405
0.167265
-0.254611
0.0242805
-0.0525469
-0.0465328
-0.0360756
-0.027296
-0.0197491
-0.0132513
-0.00800658
-0.0027724
39.5677
39.5698
39.5772
39.5911
39.6125
39.6426
39.6831
39.7327
39.8046
39.7819
40.0681
39.9061
40.0588
0.0313347
0.160195
-0.261295
0.0181296
-0.0579471
-0.0512211
-0.0400298
-0.0305096
-0.0222285
-0.0150085
-0.009054
-0.00311921
39.5636
39.5655
39.5723
39.5855
39.6062
39.6358
39.6762
39.7266
39.8003
39.7883
40.073
39.9205
40.0761
0.0242087
0.152747
-0.267486
0.0124577
-0.0629177
-0.0555352
-0.0436674
-0.0334647
-0.0245077
-0.0166233
-0.0100164
-0.0034378
39.5604
39.5618
39.568
39.5806
39.6007
39.6298
39.6701
39.7214
39.797
39.7951
40.0791
39.9359
40.0948
0.0182639
0.147615
-0.272943
0.00738542
-0.0673721
-0.0593993
-0.0469241
-0.0361092
-0.0265466
-0.0180675
-0.010877
-0.00372257
39.5579
39.5588
39.5644
39.5764
39.5959
39.6247
39.665
39.7172
39.7946
39.8018
40.0858
39.9513
40.1138
0.0125408
0.141795
-0.277939
0.00213193
-0.0712653
-0.0627439
-0.0497405
-0.0383954
-0.0283086
-0.0193152
-0.0116202
-0.00396845
39.5564
39.5566
39.5616
39.573
39.5921
39.6206
39.6609
39.7139
39.7929
39.808
40.0924
39.9656
40.1316
0.00788935
0.138079
-0.281002
-6.09502e-05
-0.0741746
-0.0654715
-0.0520609
-0.0402809
-0.0297614
-0.0203434
-0.0122326
-0.00417097
39.5561
39.5553
39.5595
39.5705
39.5892
39.6175
39.6579
39.7115
39.7919
39.8132
40.0982
39.978
40.1471
0.00399493
0.133889
-0.284718
-0.00368481
-0.0772534
-0.0676591
-0.0538528
-0.0417306
-0.0308775
-0.0211333
-0.0127028
-0.00432628
39.5564
39.5547
39.5582
39.5688
39.5873
39.6154
39.6559
39.71
39.7912
39.817
40.1026
39.9873
40.1592
0.00110525
0.131947
-0.286226
-0.00528306
-0.0783278
-0.0690151
-0.0550541
-0.0427133
-0.0316353
-0.0216695
-0.0130219
-0.00443143
39.5614
39.555
39.5577
39.5681
39.5864
39.6145
39.655
39.7094
39.7911
39.8192
40.1062
39.9913
40.1668
-0.00071605
0.129548
-0.287114
-0.00668589
-0.0793143
-0.0698429
-0.0557053
-0.043229
-0.0320279
-0.0219455
-0.0131836
-0.0044835
39.6526
39.651
39.6614
39.6811
39.7091
39.7443
39.7863
39.8274
39.912
39.7598
40.1263
39.8746
40.0055
0.128562
0.254928
-0.167398
0.100904
0.0178778
0.0150989
0.016316
0.0156392
0.0136535
0.010619
0.00634538
0.00203047
39.6466
39.6492
39.6604
39.6802
39.7081
39.7434
39.7855
39.8267
39.9109
39.7609
40.1206
39.873
40.0055
0.12845
0.255593
-0.168472
0.100358
0.0171822
0.0144539
0.015775
0.0151979
0.0133117
0.0103763
0.00619967
0.00198097
39.6429
39.6467
39.6583
39.6783
39.7062
39.7415
39.7836
39.8251
39.9083
39.7614
40.1169
39.8714
40.0056
0.12728
0.252996
-0.170504
0.0985578
0.0156648
0.0131635
0.0146889
0.0143137
0.0126281
0.00989114
0.00590981
0.00188452
39.6388
39.6434
39.6554
39.6754
39.7032
39.7385
39.7806
39.8225
39.9044
39.7613
40.1121
39.8697
40.005
0.12523
0.251327
-0.173156
0.0962637
0.013491
0.0112544
0.013074
0.0129984
0.0116114
0.00916962
0.00547919
0.00174162
39.6344
39.6394
39.6516
39.6716
39.6993
39.7345
39.7766
39.8189
39.8992
39.761
40.1063
39.8675
40.0039
0.122149
0.247274
-0.17681
0.0930357
0.0106032
0.00873817
0.0109489
0.0112682
0.0102744
0.00822094
0.00491325
0.00155404
39.6296
39.6348
39.6471
39.6669
39.6945
39.7295
39.7716
39.8143
39.8928
39.7607
40.0992
39.8649
40.0021
0.117699
0.242965
-0.181225
0.089059
0.00706113
0.00565276
0.00834151
0.00914539
0.00863424
0.00705732
0.00421923
0.00132412
39.6244
39.6297
39.6419
39.6616
39.6889
39.7236
39.7657
39.8088
39.8852
39.7595
40.0917
39.8619
39.9999
0.112339
0.237643
-0.186397
0.08437
0.0029051
0.00203434
0.00528466
0.00665734
0.00671234
0.00569401
0.00340624
0.00105488
39.6189
39.6242
39.6362
39.6555
39.6825
39.7169
39.7588
39.8023
39.8764
39.7571
40.0843
39.8585
39.9973
0.106148
0.231537
-0.192255
0.0790308
-0.00181095
-0.00206957
0.00181861
0.00383701
0.00453426
0.00414925
0.00248516
0.00074991
39.613
39.6182
39.63
39.6489
39.6754
39.7094
39.751
39.7948
39.8666
39.7548
40.076
39.855
39.9946
0.0992244
0.224738
-0.198727
0.0731151
-0.00702478
-0.00660429
-0.00200999
0.000722608
0.00212967
0.00244414
0.0014686
0.000413388
39.6069
39.6119
39.6234
39.6419
39.6678
39.7013
39.7425
39.7865
39.8561
39.7524
40.067
39.8515
39.9918
0.0916633
0.217346
-0.205725
0.0667066
-0.0126652
-0.0115075
-0.00614817
-0.00264254
-0.000467835
0.000602621
0.00037086
5.00269e-05
39.6007
39.6055
39.6165
39.6344
39.6597
39.6925
39.7333
39.7774
39.845
39.7502
40.0577
39.8482
39.9892
0.0835873
0.209473
-0.213153
0.0598981
-0.0186526
-0.0167098
-0.010537
-0.00621033
-0.00322102
-0.00134883
-0.00079227
-0.000334961
39.5944
39.5989
39.6094
39.6267
39.6513
39.6834
39.7236
39.7677
39.8335
39.7482
40.0483
39.8455
39.9872
0.0751045
0.201238
-0.220905
0.0527912
-0.0248997
-0.022135
-0.0151122
-0.00992835
-0.00608932
-0.00338142
-0.00200362
-0.000735899
39.5881
39.5923
39.6023
39.6189
39.6427
39.674
39.7135
39.7576
39.8219
39.7466
40.0393
39.8436
39.986
0.0663491
0.192768
-0.228863
0.0454946
-0.0313125
-0.0277014
-0.0198045
-0.0137404
-0.00902938
-0.00546438
-0.00324485
-0.00114671
39.5818
39.5858
39.5953
39.6111
39.634
39.6645
39.7034
39.7474
39.8106
39.7454
40.0311
39.843
39.9863
0.0574578
0.184198
-0.236905
0.038122
-0.0377914
-0.0333225
-0.0245413
-0.0175874
-0.0119956
-0.0075654
-0.0044967
-0.001561
39.5759
39.5795
39.5884
39.6035
39.6255
39.6551
39.6932
39.7371
39.7998
39.745
40.024
39.8441
39.9884
0.0485703
0.175666
-0.244902
0.0307902
-0.0442332
-0.0389088
-0.0292472
-0.0214082
-0.0149408
-0.00965115
-0.00573931
-0.00197222
39.5702
39.5735
39.5818
39.5961
39.6172
39.6459
39.6834
39.7272
39.7898
39.7454
40.0186
39.8473
39.9929
0.0398272
0.167318
-0.252723
0.0236178
-0.050533
-0.0443695
-0.033846
-0.0251409
-0.0178174
-0.0116879
-0.00695254
-0.00237367
39.5649
39.5679
39.5756
39.5891
39.6093
39.6372
39.6739
39.7178
39.7808
39.7467
40.015
39.8529
40
0.0313811
0.159323
-0.260237
0.016724
-0.0565854
-0.0496138
-0.0382617
-0.0287238
-0.0205778
-0.0136418
-0.00811627
-0.00275869
39.5602
39.5628
39.5699
39.5826
39.6019
39.629
39.6652
39.7092
39.7729
39.7489
40.0134
39.8609
40.0097
0.0233517
0.15195
-0.267316
0.0102292
-0.0622861
-0.0545527
-0.0424195
-0.0320962
-0.0231751
-0.0154799
-0.00921081
-0.00312074
39.5561
39.5584
39.5648
39.5767
39.5952
39.6215
39.6572
39.7015
39.7663
39.752
40.0136
39.8708
40.0217
0.0158891
0.143897
-0.273891
0.00426516
-0.0675338
-0.0591019
-0.046248
-0.0351995
-0.0255642
-0.0171702
-0.0102172
-0.00345356
39.5528
39.5546
39.5603
39.5715
39.5893
39.6149
39.6503
39.6949
39.7608
39.7556
40.0153
39.8821
40.0354
0.00920832
0.138217
-0.279673
-0.000876657
-0.0722337
-0.0631829
-0.0496791
-0.0379786
-0.027703
-0.0186829
-0.0111176
-0.00375125
39.5503
39.5516
39.5566
39.5671
39.5842
39.6093
39.6443
39.6893
39.7564
39.7595
40.018
39.8935
40.0498
0.00334441
0.13224
-0.28532
-0.00653405
-0.0764611
-0.0667323
-0.0526503
-0.0403833
-0.0295525
-0.0199904
-0.0118957
-0.00400846
39.5488
39.5493
39.5537
39.5636
39.5801
39.6047
39.6395
39.685
39.7531
39.7633
40.021
39.904
40.0637
-0.00156531
0.128202
-0.288029
-0.00955959
-0.0794643
-0.0695902
-0.0550952
-0.042368
-0.0310782
-0.0210687
-0.0125372
-0.00422041
39.5484
39.5479
39.5516
39.5609
39.577
39.6012
39.6359
39.6817
39.7507
39.7667
40.0239
39.9129
40.0759
-0.005654
0.123862
-0.292348
-0.0129494
-0.0825754
-0.0719407
-0.0569899
-0.0438942
-0.0322511
-0.0218974
-0.0130301
-0.00438304
39.5487
39.5473
39.5502
39.5592
39.575
39.599
39.6335
39.6796
39.7492
39.7694
40.0257
39.9198
40.0854
-0.00870273
0.121737
-0.293826
-0.0146687
-0.0839778
-0.0733955
-0.0582497
-0.0449274
-0.033047
-0.0224599
-0.0133647
-0.00449326
39.5536
39.5476
39.5497
39.5584
39.574
39.5979
39.6324
39.6788
39.7486
39.7712
40.0272
39.9241
40.0913
-0.0106054
0.119296
-0.294827
-0.016055
-0.0849583
-0.0741816
-0.0589392
-0.0454741
-0.0334617
-0.0227509
-0.0135348
-0.00454801
39.6453
39.6441
39.6546
39.6742
39.7019
39.7369
39.7786
39.8198
39.9028
39.7538
40.1168
39.8675
39.999
0.125209
0.251284
-0.16829
0.0965392
0.0173236
0.0150694
0.0166976
0.0163106
0.0144675
0.0114195
0.0069697
0.00229871
39.6392
39.6423
39.6535
39.6733
39.7009
39.7359
39.7777
39.819
39.9015
39.7548
40.1107
39.8657
39.999
0.124982
0.251896
-0.169404
0.0959352
0.0165845
0.0143882
0.0161278
0.0158471
0.0141093
0.0111658
0.00681772
0.00224734
39.6355
39.6397
39.6515
39.6712
39.6989
39.7338
39.7756
39.8171
39.8986
39.7552
40.1063
39.8638
39.9989
0.123698
0.249169
-0.171556
0.0940367
0.014984
0.0130271
0.0149845
0.0149184
0.0133928
0.0106581
0.00651489
0.00214674
39.6314
39.6364
39.6484
39.6682
39.6958
39.7306
39.7724
39.8142
39.8943
39.7549
40.1006
39.8615
39.9979
0.121488
0.247286
-0.174385
0.0915778
0.0126799
0.0110111
0.0132837
0.0135363
0.0123265
0.00990266
0.00606468
0.00199756
39.6269
39.6323
39.6446
39.6643
39.6917
39.7263
39.768
39.8101
39.8884
39.7543
40.0934
39.8586
39.996
0.118161
0.243012
-0.178264
0.0881406
0.00961987
0.00835286
0.0110445
0.0117175
0.0109237
0.00890889
0.00547262
0.00180159
39.622
39.6277
39.6399
39.6595
39.6866
39.721
39.7625
39.8048
39.8811
39.7529
40.0851
39.855
39.9931
0.113392
0.238353
-0.182964
0.0839058
0.00586466
0.00509171
0.00829562
0.00948451
0.00920185
0.00768922
0.00474612
0.00156124
39.6168
39.6224
39.6346
39.654
39.6807
39.7147
39.7559
39.7984
39.8723
39.7501
40.0764
39.8507
39.9894
0.107653
0.232651
-0.188475
0.0789096
0.00145495
0.00126437
0.00507054
0.00686556
0.00718278
0.00625927
0.00389449
0.00127958
39.6112
39.6168
39.6287
39.6477
39.674
39.7075
39.7483
39.7908
39.8622
39.7465
40.0665
39.8457
39.9849
0.10103
0.226107
-0.194723
0.0732179
-0.00355325
-0.00308008
0.00141075
0.00389447
0.00489279
0.00463774
0.00292887
0.000960283
39.6052
39.6107
39.6224
39.6408
39.6665
39.6994
39.7396
39.7821
39.8508
39.7425
40.0552
39.8399
39.9797
0.093621
0.218815
-0.201633
0.0669075
-0.00909521
-0.00788503
-0.00263549
0.000610704
0.0023625
0.00284642
0.00186229
0.00060765
39.5991
39.6043
39.6156
39.6335
39.6584
39.6905
39.7301
39.7723
39.8383
39.7382
40.0425
39.8334
39.9736
0.0855306
0.210884
-0.209113
0.0600661
-0.0150965
-0.0130856
-0.00701316
-0.00294079
-0.0003733
0.000910057
0.0007095
0.000226545
39.5927
39.5977
39.6085
39.6257
39.6498
39.6811
39.7197
39.7615
39.8248
39.7334
40.0287
39.8263
39.9667
0.0768723
0.202429
-0.217062
0.052792
-0.0214736
-0.018609
-0.0116607
-0.00670988
-0.00327583
-0.00114382
-0.000513101
-0.000177621
39.5863
39.591
39.6012
39.6177
39.6409
39.6711
39.7088
39.75
39.8107
39.7283
40.0142
39.8188
39.9593
0.067779
0.19358
-0.225366
0.0451928
-0.0281343
-0.0243754
-0.0165105
-0.0106416
-0.00630272
-0.00328515
-0.00178761
-0.000598932
39.5798
39.5842
39.5939
39.6095
39.6317
39.6609
39.6974
39.7378
39.7961
39.723
39.9991
39.8111
39.9515
0.0583863
0.184471
-0.233902
0.037384
-0.0349786
-0.030298
-0.0214898
-0.014677
-0.00940842
-0.0054817
-0.00309483
-0.00103103
39.5735
39.5776
39.5866
39.6014
39.6225
39.6505
39.6858
39.7253
39.7816
39.7176
39.9841
39.8039
39.944
0.0488401
0.175247
-0.242538
0.0294874
-0.0419004
-0.0362848
-0.0265213
-0.0187533
-0.0125448
-0.00769944
-0.00441449
-0.00146723
39.5674
39.5711
39.5795
39.5933
39.6134
39.6401
39.6741
39.7127
39.7674
39.7126
39.9698
39.7977
39.9374
0.0392846
0.166054
-0.251136
0.0216282
-0.0487895
-0.0422405
-0.0315249
-0.0228059
-0.0156621
-0.00990318
-0.00572567
-0.00190059
39.5617
39.565
39.5727
39.5856
39.6045
39.6299
39.6627
39.7004
39.7538
39.708
39.9566
39.7933
39.9324
0.0298875
0.157041
-0.259556
0.0139333
-0.0555335
-0.0480676
-0.0364194
-0.026769
-0.0187097
-0.0120572
-0.00700705
-0.00232406
39.5563
39.5593
39.5663
39.5782
39.596
39.6202
39.6518
39.6886
39.7412
39.7042
39.9453
39.791
39.9297
0.0207953
0.148352
-0.267658
0.00652935
-0.0620191
-0.0536685
-0.0411235
-0.0305768
-0.0216369
-0.0141255
-0.00823729
-0.00273059
39.5515
39.5541
39.5603
39.5714
39.588
39.6111
39.6415
39.6777
39.7298
39.7013
39.936
39.7912
39.9298
0.0121762
0.140147
-0.275302
-0.000460963
-0.0681342
-0.0589477
-0.0455579
-0.0341643
-0.0243937
-0.016073
-0.00939544
-0.00311321
39.5473
39.5495
39.555
39.5652
39.5808
39.6028
39.6322
39.6678
39.7198
39.6993
39.9289
39.7927
39.9325
0.00405698
0.13219
-0.282402
-0.00694723
-0.0737675
-0.0638151
-0.049646
-0.0374685
-0.0269318
-0.0178654
-0.0104612
-0.00346524
39.5439
39.5456
39.5504
39.5597
39.5744
39.5954
39.6239
39.6592
39.7112
39.6982
39.9237
39.7953
39.9373
-0.00314112
0.125655
-0.288675
-0.0126923
-0.0787605
-0.0681894
-0.0533147
-0.0404299
-0.0292057
-0.0194708
-0.0114155
-0.00378039
39.5413
39.5425
39.5466
39.5551
39.5689
39.589
39.6168
39.6519
39.7041
39.6979
39.92
39.7989
39.9433
-0.0094808
0.119295
-0.294266
-0.0180145
-0.0834137
-0.072046
-0.0565007
-0.0429952
-0.0311738
-0.0208594
-0.0122408
-0.00405289
39.5397
39.5402
39.5435
39.5513
39.5644
39.5838
39.6111
39.6461
39.6985
39.6981
39.9173
39.8028
39.9496
-0.0148014
0.114735
-0.298314
-0.0218474
-0.0868238
-0.0750873
-0.0591143
-0.0451167
-0.0327989
-0.0220055
-0.0129219
-0.0042776
39.5393
39.5387
39.5413
39.5485
39.5611
39.5799
39.6067
39.6416
39.6943
39.6986
39.9152
39.8063
39.9551
-0.0191518
0.110211
-0.301977
-0.0253642
-0.0897535
-0.0776072
-0.0611485
-0.0467463
-0.0340489
-0.0228868
-0.0134453
-0.00445018
39.5395
39.538
39.5399
39.5467
39.5588
39.5773
39.6038
39.6387
39.6914
39.6993
39.9132
39.8089
39.9593
-0.0224026
0.10783
-0.304088
-0.0273102
-0.0914931
-0.0791624
-0.0624968
-0.0478482
-0.0348955
-0.0234847
-0.0138009
-0.00456722
39.5445
39.5383
39.5393
39.5459
39.5578
39.5761
39.6025
39.6374
39.6901
39.7004
39.9121
39.8105
39.9614
-0.0244144
0.105317
-0.305091
-0.0287339
-0.0925135
-0.0799829
-0.0632007
-0.0484352
-0.0353413
-0.0237967
-0.0139825
-0.00462563
39.6368
39.6358
39.6463
39.6657
39.693
39.7276
39.7691
39.8103
39.8913
39.7462
40.1051
39.8585
39.9907
0.120849
0.246696
-0.169085
0.0909668
0.0166363
0.0151562
0.0172631
0.0172227
0.0155441
0.0124644
0.00777838
0.00264431
39.6308
39.634
39.6452
39.6647
39.692
39.7266
39.7681
39.8094
39.8899
39.7473
40.0986
39.8566
39.9906
0.120581
0.247239
-0.170251
0.0902856
0.0158417
0.0144294