/*--------------------------------*- C++ -*----------------------------------*\
  =========                 |
  \\      /  F ield         | OpenFOAM: The Open Source CFD Toolbox
   \\    /   O peration     | Website:  https://openfoam.org
    \\  /    A nd           | Version:  11
     \\/     M anipulation  |
\*---------------------------------------------------------------------------*/
FoamFile
{
    format      ascii;
    class       volScalarField;
    location    "15";
    object      k;
}
// * * * * * * * * * * * * * * * * * * * * * * * * * * * * * * * * * * * * * //

dimensions      [0 2 -2 0 0 0 0];

internalField   nonuniform List<scalar> 
17196
(
0.00932442
0.00781537
0.00481704
0.00274357
0.00321992
0.0039029
0.00424029
0.00558298
0.00622337
0.0102479
0.00848868
0.03307
0.0328144
0.0238232
0.0212471
0.0240699
0.0296627
0.0329758
0.0373782
0.0398675
0.0503429
0.0388764
0.0339172
0.0284449
0.0209268
0.00949107
0.00884116
0.00684206
0.00405811
0.00367923
0.00583996
0.0057737
0.0078952
0.0102763
0.014293
0.0147173
0.0267576
0.0333329
0.0331007
0.0361039
0.045856
0.0509235
0.0493522
0.0595025
0.058028
0.0599552
0.0512733
0.0489232
0.0421419
0.0307535
0.00951536
0.00895432
0.00770808
0.00507713
0.00411452
0.00547027
0.00850561
0.0116057
0.0141397
0.02004
0.021862
0.0273934
0.0368188
0.043096
0.0474797
0.0466223
0.0501246
0.0503652
0.0594247
0.0581512
0.0603104
0.0546419
0.0506079
0.0485774
0.0353715
0.0095639
0.00896469
0.00806051
0.00538382
0.00441089
0.00659009
0.0116033
0.0139234
0.0153644
0.0197206
0.0244092
0.0303095
0.0446332
0.047963
0.0519693
0.0467061
0.0576868
0.0495473
0.0547514
0.0640593
0.0644048
0.0594026
0.0555057
0.0420647
0.0316246
0.00955592
0.00898608
0.00820242
0.00651668
0.00542249
0.00987003
0.0139465
0.014651
0.0157945
0.0192943
0.027929
0.0329266
0.0486285
0.0579399
0.0481349
0.0463243
0.0495707
0.049064
0.0548074
0.0581592
0.0587241
0.0604255
0.0534164
0.041703
0.0308165
0.00962219
0.00893522
0.00844057
0.00670044
0.00687123
0.0140402
0.0163787
0.0152718
0.0161392
0.0188751
0.026063
0.0420147
0.0442843
0.0517217
0.0455505
0.0488511
0.0521351
0.0521267
0.0580555
0.0641511
0.0644219
0.0608839
0.0538292
0.0436473
0.0314792
0.00973261
0.00904652
0.00852026
0.00676581
0.00906832
0.0172823
0.0184692
0.0167545
0.0177968
0.0194726
0.0236973
0.0509951
0.0521858
0.0461762
0.0412245
0.0426093
0.0464962
0.0521321
0.0618584
0.0674557
0.0656538
0.0625417
0.0569007
0.0468575
0.035632
0.00967148
0.00917523
0.00846818
0.00739139
0.0122954
0.0212936
0.0219056
0.0201203
0.0198479
0.0221286
0.0230682
0.0494627
0.0489246
0.0526308
0.0448519
0.0439721
0.0487505
0.0607618
0.0728846
0.0800884
0.074067
0.0677839
0.0610591
0.0497827
0.0369307
0.00964373
0.00919833
0.00825184
0.00753763
0.0167455
0.0249117
0.0257156
0.0238809
0.0243598
0.0246899
0.0249475
0.0422234
0.0448583
0.0501222
0.0486064
0.0484937
0.0572751
0.0806294
0.0942886
0.107953
0.0922782
0.075141
0.0652809
0.054002
0.0420071
0.0096239
0.00919627
0.00813786
0.0076386
0.0216326
0.0289015
0.0297281
0.0285046
0.024655
0.0269109
0.0280443
0.0397727
0.0459971
0.0498799
0.0521509
0.0562396
0.0646786
0.102277
0.12634
0.146307
0.118326
0.0899024
0.0742006
0.0626186
0.0431334
0.00964567
0.00914222
0.00783755
0.00709568
0.0263411
0.0323193
0.0329205
0.0306361
0.0248818
0.0285716
0.03264
0.0384754
0.0448573
0.049501
0.0618333
0.0659995
0.0769602
0.12307
0.177978
0.193028
0.162999
0.117542
0.0909221
0.0714108
0.0505012
0.00965146
0.00905866
0.00775268
0.00697189
0.0300535
0.0357047
0.0363797
0.0331245
0.0275575
0.0277453
0.0328808
0.0432275
0.0450535
0.0508966
0.0681696
0.0780832
0.0909768
0.160029
0.224742
0.225359
0.205076
0.153443
0.113064
0.082875
0.0513771
0.00967606
0.00896929
0.00765705
0.00612138
0.0333449
0.0383507
0.0388594
0.0361425
0.0327214
0.0274989
0.0370836
0.0490554
0.0560541
0.0508449
0.0697151
0.0831933
0.100311
0.149666
0.201943
0.208658
0.190717
0.155149
0.125892
0.0776714
0.0457308
0.00970803
0.00883656
0.00758067
0.0065646
0.0355589
0.0408877
0.0416707
0.039507
0.0369792
0.028916
0.0358289
0.0475266
0.0516754
0.0576021
0.0682026
0.0819991
0.0970674
0.124993
0.155613
0.156122
0.155879
0.132459
0.103835
0.0619853
0.0474856
0.00971919
0.00883278
0.00757343
0.00688605
0.0372829
0.0431835
0.0443215
0.0433679
0.0408035
0.0355344
0.036365
0.0502737
0.0578449
0.0535309
0.072354
0.0786131
0.088227
0.0970642
0.107056
0.109688
0.113687
0.0994073
0.0709338
0.0597076
0.0561032
0.00975629
0.00878501
0.00796324
0.00809626
0.0392825
0.0430536
0.0446265
0.0459382
0.0446155
0.0403933
0.0421574
0.0515605
0.0588037
0.0596885
0.0645822
0.0797128
0.0800725
0.076027
0.0761639
0.0785752
0.0804635
0.06853
0.0566313
0.0813728
0.0751904
0.00984628
0.008735
0.00819646
0.0103957
0.0404813
0.0427968
0.044607
0.0458676
0.0446485
0.0453318
0.0434196
0.050948
0.0569181
0.062185
0.068314
0.0776421
0.0742386
0.0631169
0.0571495
0.0563141
0.0569283
0.0504961
0.0472302
0.0928501
0.0884647
0.00966412
0.00903167
0.00836609
0.0132423
0.0400973
0.0441554
0.0444917
0.0467711
0.046175
0.0465726
0.0448853
0.0500443
0.0536392
0.0603198
0.0689211
0.0744625
0.0696832
0.0565349
0.048025
0.0446866
0.0423631
0.0385941
0.0379942
0.0655812
0.0757655
0.00962778
0.00916871
0.00819149
0.0148475
0.0405668
0.0431095
0.0450327
0.045981
0.0466829
0.0473752
0.0465187
0.0487729
0.0508299
0.0567708
0.0662717
0.0692951
0.0646292
0.0534095
0.044314
0.0388384
0.035209
0.0312185
0.0316405
0.0444922
0.0545259
0.00960122
0.00918762
0.00800072
0.0177156
0.0408503
0.0423614
0.0435962
0.0452786
0.0467515
0.0468281
0.0454282
0.0464651
0.0476624
0.0528273
0.0617884
0.0634076
0.0616772
0.0514526
0.0431647
0.0367986
0.0298086
0.0202006
0.0189031
0.0208268
0.0171185
0.00968641
0.0092013
0.00766579
0.0196793
0.0394375
0.042983
0.0436495
0.0450571
0.0444871
0.0434674
0.0419309
0.0427346
0.0438032
0.048471
0.0558094
0.0567039
0.0560896
0.0512209
0.0433845
0.0374126
0.0318196
0.0197888
0.0181969
0.0135871
0.011829
0.0100431
0.00858778
0.00711991
0.0185297
0.0379951
0.0415102
0.0435854
0.0438684
0.0412282
0.0396126
0.0383153
0.0388384
0.0402163
0.0429503
0.0455176
0.0481347
0.0464309
0.0465844
0.0430341
0.0376725
0.0342715
0.0286827
0.0211697
0.0180663
0.0119798
0.0101671
0.0078931
0.00708129
0.013355
0.0363492
0.0394942
0.0405267
0.0396875
0.0360625
0.0350019
0.0342036
0.0346031
0.0351885
0.0370557
0.0363435
0.0371349
0.0382533
0.0351411
0.0337441
0.0348512
0.0332199
0.0318719
0.0249828
0.0208636
0.0140945
0.00971447
0.00729321
0.00828232
0.0185025
0.0307474
0.0335843
0.0347289
0.0337468
0.0315842
0.0302418
0.0301935
0.0303204
0.0313217
0.030313
0.0284946
0.0264737
0.0288666
0.0233724
0.0273843
0.0228622
0.0275305
0.0234555
0.0234185
0.0212463
0.0169681
0.00923372
0.00684799
0.0132421
0.0177586
0.0201145
0.0215036
0.0221477
0.0222803
0.0214817
0.0214346
0.019617
0.0221546
0.0218134
0.0200939
0.0174373
0.0158554
0.0166699
0.0178069
0.0178345
0.0177592
0.0138962
0.0115338
0.00874255
0.00878417
0.0100445
0.00955954
0.00819055
0.00679127
0.00412452
0.00304784
0.00405164
0.00642544
0.0111912
0.0154149
0.0179064
0.0200097
0.0796666
0.0671369
0.0718078
0.0745952
0.0780142
0.0776608
0.0869331
0.109894
0.108082
0.108015
0.0833501
0.0653568
0.0553951
0.0304031
0.00351976
0.00252142
0.0029313
0.00322154
0.00621532
0.00888439
0.00733766
0.0118299
0.0175017
0.0271637
0.0370893
0.103747
0.0900432
0.111435
0.141552
0.166842
0.16207
0.145195
0.147216
0.145651
0.146976
0.115616
0.0874505
0.0780298
0.0507617
0.00342301
0.00138445
0.0015075
0.00190943
0.00301009
0.0132811
0.0178187
0.0164843
0.0207105
0.034331
0.0495241
0.100081
0.0884002
0.104942
0.103164
0.0984906
0.105067
0.103879
0.136505
0.138098
0.136703
0.120188
0.0844833
0.0673833
0.0455432
0.00344448
0.00121074
0.00150568
0.00165959
0.00160797
0.011997
0.0192957
0.0153902
0.019526
0.028907
0.0588649
0.101304
0.0857682
0.0668455
0.070904
0.0696142
0.0701159
0.0745207
0.0805566
0.097896
0.0977597
0.0947489
0.0675837
0.0369853
0.0265583
0.0034519
0.00117461
0.00156069
0.00152227
0.00115816
0.0139703
0.0199329
0.0160835
0.0189851
0.0290239
0.050401
0.102392
0.0927003
0.0639433
0.0629984
0.0679573
0.0608461
0.0597492
0.0649474
0.0742404
0.0785223
0.0816623
0.0663796
0.0319256
0.0200414
0.00345816
0.0011749
0.00158479
0.00152663
0.00248492
0.0189233
0.0213589
0.0171114
0.0194552
0.0290547
0.0516793
0.0960626
0.079099
0.0539641
0.0518004
0.0556605
0.0577403
0.0585523
0.0572599
0.0592269
0.0665312
0.070543
0.0728964
0.0388901
0.00536091
0.00346159
0.00118905
0.00151251
0.00151073
0.00604439
0.0264601
0.0270186
0.0201278
0.0208289
0.0308547
0.0498164
0.0910439
0.0840734
0.0562456
0.0484238
0.0493098
0.0517582
0.055104
0.0587782
0.0579938
0.062352
0.066866
0.0729268
0.064575
0.0312958
0.00345306
0.00128674
0.00136242
0.0017173
0.0057251
0.0323607
0.0320681
0.0253436
0.0234445
0.0330845
0.049053
0.0911654
0.131024
0.0828792
0.0506744
0.0487655
0.0501435
0.0576428
0.0652531
0.0701713
0.0658719
0.067552
0.0715005
0.0681999
0.0433759
0.00345553
0.00140071
0.00143676
0.00192963
0.00766572
0.0381312
0.0374567
0.029319
0.0249274
0.0319433
0.056866
0.0807376
0.131249
0.108018
0.0629088
0.0507752
0.0536478
0.0714721
0.0857007
0.0980746
0.0847157
0.073808
0.0697774
0.0755839
0.0531506
0.00347671
0.00151013
0.00145328
0.00233673
0.00657204
0.0373685
0.0398869
0.0313096
0.025354
0.0300122
0.0528236
0.0750199
0.148009
0.106872
0.0714537
0.0573009
0.0664939
0.106172
0.134244
0.153153
0.121861
0.0911763
0.0787794
0.0756051
0.0546128
0.00350769
0.00160854
0.00141724
0.00234808
0.0100058
0.0410811
0.0424754
0.03255
0.0267573
0.0269416
0.0442704
0.0659359
0.149742
0.121428
0.0891413
0.0678402
0.0846887
0.161323
0.23393
0.23788
0.189076
0.129235
0.0962198
0.0799918
0.0589026
0.00355908
0.00158795
0.00149939
0.00242236
0.0154485
0.0453856
0.0464329
0.033872
0.0279271
0.0262121
0.0399019
0.059923
0.151456
0.130978
0.120256
0.0914276
0.128469
0.22409
0.330877
0.294606
0.244657
0.184127
0.12648
0.0922308
0.0602112
0.00361256
0.00155736
0.00162883
0.0028507
0.0161335
0.0485336
0.0494359
0.0365185
0.0307485
0.0265739
0.0321464
0.0576815
0.141058
0.131759
0.126489
0.114412
0.161694
0.257782
0.355501
0.313825
0.268829
0.210633
0.170618
0.116099
0.0690915
0.00367486
0.00145842
0.00176086
0.00363516
0.0187069
0.050667
0.051867
0.0419015
0.0331073
0.0276806
0.0311423
0.0436872
0.107668
0.133453
0.128167
0.113126
0.163248
0.23127
0.288479
0.224353
0.195594
0.173363
0.20099
0.145766
0.0862056
0.00370245
0.00137482
0.00194842
0.00474298
0.0250716
0.0552437
0.0563751
0.0461634
0.0369127
0.0348648
0.0373325
0.0446952
0.0832149
0.121092
0.135155
0.110322
0.145478
0.178591
0.181139
0.163362
0.147512
0.142683
0.189083
0.157314
0.108502
0.00367697
0.0014306
0.00239189
0.00579896
0.0303719
0.0597093
0.0608061
0.0548817
0.0424949
0.0407461
0.0462323
0.0500563
0.0700558
0.103377
0.128707
0.108856
0.13257
0.132831
0.124389
0.104073
0.0917275
0.0966866
0.146221
0.164378
0.125464
0.00364042
0.0015346
0.00278668
0.00649197
0.0341708
0.0599606
0.0644999
0.0608608
0.0485317
0.0509443
0.0542793
0.0551593
0.0647707
0.0899238
0.113565
0.110764
0.115258
0.109
0.0956531
0.0770062
0.0633587
0.062218
0.12608
0.163205
0.129902
0.00356422
0.00175304
0.00291669
0.00688514
0.0387984
0.0635123
0.0684028
0.0676073
0.0589806
0.0609514
0.0615468
0.0598711
0.0646609
0.0797428
0.0977651
0.104929
0.101826
0.0932588
0.0807925
0.0696756
0.0538909
0.0514941
0.0844412
0.13288
0.127585
0.00353481
0.0018828
0.00307916
0.0100099
0.043509
0.0692142
0.069838
0.0716635
0.071089
0.0722998
0.0727987
0.06947
0.0637416
0.0726892
0.0905143
0.0957257
0.0924037
0.084255
0.0709108
0.061418
0.0508911
0.048138
0.0504199
0.0997742
0.123443
0.00357912
0.00170394
0.00358063
0.0194933
0.0536956
0.0702623
0.0670799
0.0726129
0.0747993
0.0764
0.0769655
0.0762619
0.0648895
0.0667788
0.0760461
0.0882444
0.0864017
0.0791315
0.0679784
0.0574557
0.0447424
0.041785
0.0442578
0.0562518
0.115504
0.00358694
0.00157422
0.00515927
0.0262689
0.0615451
0.0692371
0.0653223
0.0725624
0.0758258
0.0776383
0.0789839
0.0796178
0.0670158
0.0668613
0.0749454
0.0824987
0.080309
0.074889
0.069083
0.0581819
0.0466357
0.0374459
0.0395384
0.0403205
0.0711514
0.00337152
0.00195712
0.00920642
0.0326695
0.0617324
0.0666499
0.0648623
0.0705599
0.0735176
0.0781412
0.0783132
0.078596
0.0697271
0.06918
0.0759688
0.0821192
0.0785145
0.0762978
0.0716656
0.0631745
0.0509178
0.0417119
0.0369053
0.0348612
0.0395039
0.00317612
0.00350954
0.0164396
0.0406216
0.0561981
0.0566441
0.057822
0.060544
0.0622086
0.0662648
0.0647045
0.0680165
0.0679266
0.0685491
0.0767352
0.0805328
0.0817152
0.0795608
0.0750685
0.069785
0.0623594
0.0531338
0.0420932
0.0385139
0.0363019
0.00437883
0.0078881
0.0216846
0.0412111
0.0459856
0.0466495
0.0492013
0.0517582
0.0533197
0.0547249
0.0555338
0.0594296
0.0623949
0.0644783
0.0718007
0.0743879
0.0725331
0.0693255
0.0715867
0.0672714
0.0653124
0.0593942
0.0558757
0.0496385
0.0404134
0.00890736
0.0115364
0.019425
0.023618
0.0269674
0.0279832
0.0284719
0.0278188
0.0264219
0.0273329
0.0283554
0.033777
0.0359892
0.0361979
0.037616
0.0434153
0.0476337
0.0418742
0.0420551
0.0411145
0.0381895
0.0374856
0.0376887
0.0314947
0.0266178
0.00961932
0.00811526
0.00674265
0.00529408
0.00333296
0.004285
0.00733595
0.013808
0.0180745
0.0233596
0.0442521
0.106493
0.100588
0.0993275
0.0767659
0.0697672
0.0845554
0.090473
0.103401
0.095867
0.0826325
0.0726442
0.0592847
0.0470732
0.0317531
0.00327925
0.00208889
0.00198501
0.00227164
0.00270023
0.00636741
0.00704293
0.0089451
0.0167126
0.0297641
0.0808261
0.149989
0.149659
0.205826
0.212943
0.183362
0.172633
0.181528
0.198427
0.229623
0.210448
0.157244
0.120219
0.0929937
0.0587247
0.00318485
0.00130075
0.000759046
0.000877151
0.000916368
0.00377054
0.00468143
0.00618925
0.0165042
0.030052
0.0691905
0.152806
0.13646
0.176728
0.205998
0.183348
0.184598
0.189405
0.227955
0.273784
0.298827
0.221624
0.142317
0.0982443
0.0484052
0.00318957
0.00125121
0.000667369
0.000607762
0.00202848
0.00361588
0.0039664
0.00500009
0.0160984
0.0335371
0.0577196
0.174272
0.119977
0.102797
0.125686
0.109927
0.106217
0.108399
0.129816
0.21382
0.265045
0.25305
0.15169
0.0873811
0.0301378
0.00318821
0.00123962
0.00068176
0.000538572
0.00203221
0.00818466
0.00942542
0.00905012
0.017624
0.0381951
0.0717943
0.181966
0.12456
0.0859303
0.0772622
0.0704518
0.0666363
0.069311
0.0817423
0.0995075
0.171942
0.194491
0.148015
0.0405148
0.0171749
0.00318733
0.00121959
0.000711163
0.000533313
0.00190496
0.00821018
0.0124915
0.0123435
0.017677
0.0428214
0.0830141
0.18584
0.109892
0.0677135
0.0653717
0.0646407
0.066145
0.0653763
0.0643884
0.0690828
0.0818298
0.103932
0.0748954
0.0131419
0.00933638
0.00318656
0.00120747
0.000726503
0.00051635
0.00164028
0.0116632
0.0108971
0.0127893
0.0164443
0.044814
0.0755467
0.173715
0.15919
0.0847619
0.0539398
0.0514188
0.0535959
0.0601421
0.072153
0.0558788
0.0634307
0.0667263
0.0547303
0.0237545
0.00918473
0.00318626
0.00121581
0.000720324
0.00052236
0.000282519
0.0118437
0.0116771
0.0144026
0.0181838
0.0386437
0.0783635
0.183452
0.233022
0.119387
0.0517249
0.0494377
0.0521885
0.0603288
0.0612951
0.061421
0.0513861
0.0614944
0.0566581
0.0429901
0.0215695
0.00318766
0.00123365
0.000712993
0.000529427
0.00064973
0.00909706
0.0141203
0.0127265
0.0178505
0.0315169
0.06947
0.176976
0.266024
0.15126
0.0667923
0.05048
0.052273
0.0556518
0.0592989
0.0579838
0.0508686
0.0516225
0.0493721
0.0443405
0.0482194
0.00318759
0.00127769
0.000653187
0.00063428
0.000763983
0.00911436
0.0108008
0.0130319
0.0166426
0.0265252
0.053997
0.138647
0.280299
0.177602
0.0790563
0.0523282
0.0591204
0.0676867
0.0772105
0.0639344
0.0546588
0.0427056
0.0336377
0.038185
0.0436363
0.00318968
0.00130783
0.000642481
0.000618411
0.00296875
0.00794244
0.0092416
0.0132261
0.0153636
0.0217206
0.0404013
0.0912796
0.232
0.177599
0.0955196
0.0591472
0.0800771
0.12555
0.153596
0.133028
0.080604
0.0390345
0.0308358
0.0279189
0.0420652
0.00319685
0.0013304
0.000647683
0.000630312
0.00525555
0.0102109
0.00979411
0.0108675
0.0152324
0.0203262
0.0346572
0.0653084
0.172661
0.187887
0.116498
0.0766956
0.14359
0.241688
0.327771
0.285616
0.2062
0.118199
0.0658474
0.044191
0.0372299
0.00319872
0.0013335
0.000660113
0.000693511
0.00525019
0.0129433
0.0126446
0.0124083
0.0133573
0.0177186
0.0272614
0.0493336
0.11607
0.187825
0.150898
0.104499
0.189944
0.295911
0.372135
0.400187
0.369919
0.249617
0.132874
0.0694953
0.0475766
0.00320774
0.00132027
0.00070236
0.000858252
0.00682508
0.0148412
0.0139062
0.0140021
0.014188
0.0162292
0.0289199
0.040224
0.0781429
0.158566
0.156179
0.117657
0.18687
0.249466
0.3269
0.3768
0.382976
0.33583
0.239737
0.114987
0.0560962
0.00321538
0.00128663
0.000777354
0.00111197
0.00919415
0.0211702
0.0196396
0.015519
0.0168523
0.0200168
0.0357373
0.0443262
0.0669768
0.126112
0.154305
0.127825
0.169792
0.20263
0.246177
0.276778
0.296761
0.317098
0.27698
0.168052
0.0712623
0.00322938
0.00122789
0.000887632
0.00142129
0.0104166
0.0326848
0.0289941
0.0237306
0.0191281
0.0204182
0.0385734
0.0494109
0.059261
0.0996006
0.139574
0.123751
0.152074
0.173757
0.157063
0.179739
0.195175
0.230858
0.233886
0.1905
0.0830904
0.00325099
0.00114519
0.00111797
0.00181564
0.0120613
0.0396453
0.0375322
0.0331488
0.0270036
0.0302614
0.0471353
0.056826
0.0632567
0.0870829
0.116484
0.119198
0.136879
0.151601
0.129842
0.137096
0.141129
0.171829
0.213324
0.191511
0.104653
0.00324108
0.00118717
0.00251918
0.00524447
0.0157818
0.0495385
0.0496473
0.0439917
0.0340158
0.0413774
0.0566103
0.0630189
0.0650389
0.07932
0.0989895
0.111553
0.121686
0.126672
0.118542
0.112262
0.111817
0.117587
0.16996
0.175767
0.13851
0.00322544
0.00120153
0.00686271
0.0123039
0.0279779
0.0592429
0.0683011
0.0619638
0.0519194
0.0643722
0.0659551
0.0695551
0.0685935
0.0756297
0.0855258
0.102529
0.109746
0.109905
0.10386
0.0927037
0.0954075
0.0812222
0.11653
0.156802
0.145119
0.00320368
0.00137321
0.00880295
0.0214153
0.0403547
0.0726292
0.0969716
0.0831339
0.0920233
0.0805269
0.0902061
0.0875155
0.0779518
0.0736335
0.0764445
0.0860636
0.0988064
0.0969044
0.0943592
0.0839712
0.0733895
0.065483
0.0688902
0.129528
0.139362
0.00313262
0.0018347
0.0125337
0.0388174
0.0730126
0.0928814
0.101809
0.0929425
0.0912043
0.0922872
0.0966108
0.0987048
0.0872979
0.0772048
0.079107
0.082032
0.0859807
0.0886074
0.0820242
0.0788664
0.0696036
0.0586139
0.0562371
0.0737186
0.116135
0.0029672
0.00274103
0.0224458
0.0637423
0.0884523
0.0966678
0.10045
0.0959947
0.0923355
0.0888793
0.0957264
0.103363
0.0921379
0.0883663
0.0850623
0.0825515
0.0825947
0.0808967
0.0796779
0.079677
0.0710205
0.0628304
0.0567083
0.0507675
0.0674449
0.00311851
0.00474402
0.0363816
0.0698151
0.0839094
0.0879544
0.0843637
0.0776385
0.0757376
0.0810141
0.0906764
0.0965658
0.0895797
0.0933908
0.0962231
0.0887717
0.0903966
0.085897
0.088931
0.0833314
0.0809423
0.0714995
0.0631276
0.053778
0.0503536
0.00454187
0.0119516
0.036539
0.0605754
0.0688036
0.0698636
0.0735908
0.0679709
0.0681564
0.0745252
0.0821612
0.0831907
0.0791459
0.0882416
0.101546
0.103251
0.102675
0.104877
0.101629
0.0972198
0.0898766
0.0805634
0.0686769
0.0575127
0.0486165
0.0089306
0.0149742
0.0295488
0.0387064
0.0413831
0.0418965
0.0443208
0.0370253
0.0361814
0.0371723
0.0392935
0.0443501
0.0482829
0.0586824
0.0684714
0.0720005
0.0734083
0.0706563
0.0663096
0.0619443
0.0588294
0.0556136
0.0512558
0.0453394
0.0370717
0.00938163
0.00795104
0.00666639
0.00520458
0.00338762
0.00551547
0.00885915
0.0162295
0.0226417
0.0203662
0.0407253
0.104671
0.103814
0.100717
0.0809789
0.0752143
0.0773994
0.073674
0.0729709
0.0703368
0.0644844
0.0578127
0.0535857
0.0490442
0.0314719
0.0033208
0.00203868
0.00208039
0.00276656
0.00551027
0.00609164
0.0064659
0.00908364
0.0305664
0.0360794
0.077498
0.178663
0.173716
0.242896
0.215269
0.176037
0.16621
0.217724
0.25047
0.246941
0.196643
0.132183
0.0951325
0.0916591
0.0690019
0.00318732
0.0012576
0.00078716
0.000938984
0.00248322
0.00378264
0.00394247
0.00761087
0.0428067
0.048865
0.0718033
0.199137
0.219776
0.248896
0.217813
0.182639
0.181168
0.231094
0.296097
0.285358
0.213312
0.147196
0.123142
0.128025
0.102795
0.00318598
0.0012461
0.000631065
0.000581178
0.00188297
0.00352989
0.00417416
0.00928388
0.0443402
0.0674891
0.090231
0.242579
0.212579
0.217796
0.183738
0.154908
0.156075
0.176068
0.247215
0.33183
0.317337
0.198456
0.139178
0.140853
0.119439
0.00318078
0.00122975
0.000652719
0.000451132
0.00149476
0.0041045
0.00535444
0.00715232
0.0369135
0.0915744
0.13881
0.292311
0.160089
0.147007
0.124223
0.118182
0.126625
0.151775
0.204429
0.29677
0.3596
0.265694
0.184529
0.172257
0.108749
0.00318369
0.00121082
0.000684425
0.000426716
0.00166316
0.00393237
0.00560305
0.00910115
0.0308454
0.117277
0.154108
0.299459
0.19255
0.142397
0.103767
0.102986
0.118532
0.155523
0.195785
0.22847
0.308952
0.283265
0.223739
0.191645
0.108311
0.00318455
0.00123731
0.000679139
0.000417923
0.0014021
0.00425955
0.00702128
0.0101604
0.0283962
0.102122
0.155096
0.317857
0.328857
0.184831
0.0874016
0.0766266
0.0858623
0.110021
0.149026
0.208103
0.273435
0.267861
0.243318
0.20964
0.100711
0.00319126
0.00126671
0.000687721
0.000429728
0.00126893
0.00518296
0.00764612
0.0106182
0.0265298
0.0742912
0.144552
0.271642
0.377598
0.20545
0.0899241
0.0744011
0.0824683
0.0908843
0.0938491
0.131725
0.22301
0.252866
0.239588
0.213018
0.104668
0.00319563
0.00127129
0.000700949
0.000439256
0.000727991
0.0044418
0.00737094
0.0103005
0.0233506
0.0582785
0.11827
0.211908
0.343052
0.243463
0.0986953
0.0686613
0.0770955
0.0792977
0.0850837
0.101934
0.121789
0.199034
0.224477
0.141985
0.0393445
0.0031974
0.00127142
0.000709915
0.000435813
0.00041
0.00269238
0.00685822
0.0116067
0.0208624
0.0445063
0.0830298
0.143891
0.266347
0.284387
0.111484
0.0722539
0.0800055
0.091595
0.0885585
0.0754048
0.074581
0.0688275
0.0719643
0.00691739
0.00613439
0.00319313
0.00125632
0.000718037
0.000430511
0.000560485
0.00103057
0.00525868
0.00964182
0.0187859
0.0332767
0.0584185
0.0946834
0.196075
0.26202
0.116008
0.0718961
0.103278
0.124068
0.115091
0.0976579
0.0666601
0.00736566
0.00758222
0.00333519
0.00277934
0.00318808
0.00123627
0.000708292
0.000442254
0.000765139
0.00142569
0.00388048
0.00756819
0.0169214
0.0274193
0.0471125
0.0723918
0.1422
0.229106
0.134697
0.0884835
0.157219
0.232232
0.246349
0.203911
0.119401
0.0500313
0.0173744
0.005245
0.00199692
0.00317896
0.00122856
0.000686745
0.000465727
0.000759494
0.00242753
0.00481711
0.00845762
0.0129494
0.0221999
0.0350191
0.0524388
0.10014
0.196365
0.174499
0.127884
0.182164
0.286038
0.36023
0.36872
0.297237
0.131271
0.0410463
0.00790813
0.00253642
0.00317502
0.00122529
0.000657106
0.000521393
0.000903632
0.00459882
0.00548078
0.00840895
0.012367
0.0191779
0.0322612
0.0416325
0.0696056
0.148805
0.171808
0.160087
0.187156
0.240138
0.314281
0.362813
0.357101
0.256898
0.119075
0.0246284
0.00260229
0.00317869
0.00120679
0.000642742
0.00060777
0.00136031
0.00533471
0.00725826
0.0121586
0.014742
0.0226388
0.0386062
0.0456356
0.0607753
0.108403
0.161899
0.165091
0.178969
0.216531
0.254697
0.283043
0.309793
0.289643
0.168211
0.0805472
0.00333597
0.00320871
0.00105335
0.00104088
0.00093842
0.00174106
0.00866306
0.0136942
0.0156843
0.0169142
0.021966
0.0350041
0.0499902
0.0552433
0.0793744
0.128773
0.150359
0.169248
0.19691
0.201226
0.216291
0.230221
0.245451
0.185905
0.101255
0.00843576
0.00321199
0.00108197
0.00193824
0.00276172
0.00330908
0.0112918
0.0246186
0.0242498
0.0235021
0.0311101
0.0442066
0.0526458
0.0550504
0.0698041
0.105181
0.126856
0.138887
0.159428
0.16228
0.176827
0.174684
0.190003
0.196787
0.126902
0.0526741
0.00320823
0.0011532
0.00395152
0.0095527
0.00894641
0.0168335
0.0298686
0.0347604
0.0368692
0.0384613
0.0520363
0.0584672
0.0597
0.0630634
0.0849001
0.11059
0.121042
0.13129
0.134526
0.149382
0.145343
0.153044
0.174066
0.165249
0.104231
0.00317821
0.00139364
0.0134504
0.031389
0.0281946
0.0330375
0.0457983
0.0446461
0.0441658
0.0478182
0.0587179
0.06204
0.0606952
0.0630207
0.0761404
0.100057
0.110309
0.115648
0.116866
0.11767
0.119731
0.128223
0.149206
0.159571
0.138842
0.00306666
0.00203556
0.0286441
0.0430694
0.0415653
0.0459037
0.0883418
0.126313
0.101328
0.111476
0.0944943
0.0847742
0.0756725
0.0688661
0.0713065
0.0866106
0.0987887
0.100516
0.100848
0.0990642
0.0959788
0.0930077
0.119104
0.152379
0.142359
0.00287897
0.00310015
0.0405167
0.0735183
0.0763522
0.109437
0.178272
0.193348
0.185409
0.162304
0.139729
0.108133
0.0910632
0.0769744
0.0765047
0.083159
0.0848817
0.0861221
0.085569
0.0804063
0.0761191
0.0691376
0.0735515
0.118536
0.130888
0.00292966
0.00491878
0.0589583
0.0878912
0.108601
0.147921
0.188574
0.206536
0.187131
0.163003
0.152683
0.128948
0.106479
0.0887519
0.0860717
0.0844302
0.0847236
0.0857716
0.084566
0.0800577
0.0705431
0.0643508
0.0620548
0.0674043
0.102134
0.00314778
0.0103374
0.0764317
0.0860555
0.108894
0.139625
0.141631
0.125294
0.121101
0.125108
0.137312
0.127374
0.11077
0.100074
0.0973022
0.0955198
0.0872714
0.0846573
0.086675
0.0852097
0.0770403
0.064203
0.0628343
0.0595039
0.0635351
0.0045567
0.0174003
0.0761219
0.0910137
0.104112
0.118861
0.0959772
0.0867061
0.0838771
0.0992141
0.11544
0.113763
0.105781
0.103415
0.109844
0.108737
0.105441
0.108559
0.107065
0.101815
0.088974
0.0749612
0.0589844
0.0547871
0.051362
0.00891921
0.0204213
0.0455238
0.0558227
0.0559958
0.0582535
0.0493858
0.0447253
0.0425615
0.0467467
0.0491752
0.0539875
0.0610691
0.0673054
0.0758555
0.0782387
0.0779883
0.0783493
0.0752595
0.0704395
0.0624879
0.055745
0.0485237
0.0424944
0.0376553
0.00963021
0.00772105
0.00665813
0.00500334
0.00365568
0.00684091
0.0103985
0.0205333
0.0283966
0.0285937
0.0310865
0.0863819
0.0968934
0.0913921
0.0800502
0.0657603
0.071577
0.096511
0.0935999
0.117075
0.103691
0.0776098
0.0802238
0.0751238
0.0516158
0.00341526
0.00192753
0.00231677
0.00344195
0.00542279
0.00552169
0.00603204
0.0173257
0.0492189
0.0512197
0.0721802
0.174691
0.174137
0.221536
0.177225
0.13175
0.177979
0.237561
0.269278
0.203277
0.177805
0.145969
0.0877164
0.0850475
0.0693885
0.0032019
0.00118553
0.00089571
0.00162856
0.00352809
0.00355608
0.00430674
0.0167445
0.0680098
0.0752379
0.0771177
0.191524
0.196644
0.243787
0.213075
0.167791
0.214241
0.224521
0.228834
0.168536
0.138238
0.0864399
0.0705929
0.093985
0.064558
0.00318723
0.00122998
0.000647313
0.000758873
0.0019855
0.00328515
0.00463818
0.0179794
0.0735676
0.115099
0.111936
0.227818
0.245291
0.31446
0.206047
0.173283
0.229997
0.253098
0.244775
0.215137
0.174081
0.121041
0.0736331
0.0932216
0.0708537
0.00318165
0.00124921
0.000637177
0.000547239
0.00144558
0.00308262
0.00485799
0.0181589
0.0765239
0.181743
0.184167
0.251791
0.247349
0.326416
0.183362
0.162189
0.208421
0.227467
0.257228
0.274396
0.213012
0.155039
0.0522794
0.0667877
0.0717206
0.00319117
0.00125868
0.000669774
0.000462669
0.00102391
0.00309611
0.00707355
0.0187728
0.0717115
0.219864
0.254179
0.301124
0.259512
0.291535
0.16501
0.148408
0.169709
0.200451
0.276004
0.293006
0.258592
0.163204
0.0985385
0.07903
0.0218985
0.00319727
0.00129739
0.000681073
0.000448366
0.000662639
0.00231066
0.00817056
0.0203256
0.0660597
0.186738
0.32396
0.351206
0.371509
0.318215
0.152753
0.117545
0.141232
0.157599
0.228292
0.26846
0.234785
0.166423
0.140325
0.0775659
0.012466
0.00320951
0.00131968
0.00069871
0.000443917
0.000678619
0.00238693
0.00618121
0.0191875
0.0577196
0.139684
0.316046
0.338335
0.397486
0.420505
0.160326
0.118428
0.137099
0.153295
0.177361
0.192217
0.208553
0.182387
0.158121
0.0968287
0.0192831
0.00320853
0.00131964
0.000721425
0.000450801
0.000666348
0.00279921
0.00738765
0.019262
0.0466434
0.108134
0.25118
0.265966
0.325412
0.444143
0.184514
0.11951
0.140472
0.169295
0.18126
0.178465
0.136941
0.161124
0.145788
0.0937591
5.63121e-05
0.00320884
0.00132679
0.000733282
0.00046753
0.000538912
0.00232803
0.00783106
0.019941
0.0377983
0.0802027
0.176465
0.194107
0.240306
0.321738
0.229728
0.119882
0.144489
0.209361
0.199148
0.163357
0.10613
0.0915763
0.0751245
0.0251682
0.00263395
0.00320572
0.00133535
0.000740197
0.000550617
0.000698657
0.0017692
0.0065911
0.0198963
0.0304383
0.0526845
0.111798
0.149869
0.181675
0.238751
0.235778
0.120903
0.162057
0.26653
0.233809
0.198006
0.139012
0.0468316
0.021618
0.00360833
0.00269417
0.00320392
0.00136917
0.000696184
0.00069259
0.00121252
0.00238262
0.00508247
0.0171792
0.0270832
0.0389681
0.0721707
0.117555
0.142664
0.203779
0.22942
0.129316
0.179482
0.269901
0.29568
0.232779
0.155875
0.0714995
0.0383368
0.0117389
0.00268345
0.00320074
0.00135777
0.000702712
0.000894799
0.0016632
0.00340403
0.00565476
0.0111582
0.0247126
0.0326046
0.0498963
0.0844299
0.112039
0.181755
0.213307
0.177785
0.188369
0.242187
0.307515
0.338735
0.217248
0.0956769
0.0514194
0.0134512
0.00356319
0.003208
0.00128896
0.000746943
0.00160744
0.00191005
0.00366197
0.00641817
0.0111668
0.0221871
0.0305013
0.0387549
0.0594467
0.0841376
0.145795
0.185896
0.190977
0.197791
0.240436
0.2953
0.321818
0.306198
0.191203
0.0741519
0.0299069
0.0077053
0.00322775
0.00111515
0.00110359
0.00350306
0.00253329
0.00281508
0.00805179
0.00973106
0.0188257
0.0289309
0.034023
0.0496649
0.0644003
0.101873
0.156932
0.180803
0.193573
0.216777
0.26384
0.256649
0.266965
0.234574
0.141832
0.0849868
0.0245226
0.00321608
0.00112574
0.00641523
0.00995653
0.00540828
0.00458955
0.00892408
0.0102576
0.0143521
0.0262355
0.0407897
0.0483095
0.0571923
0.0763271
0.112785
0.140873
0.152803
0.164494
0.185204
0.185926
0.194341
0.194504
0.15051
0.0958746
0.0442252
0.00319228
0.00114926
0.0135562
0.0254471
0.0149558
0.00861677
0.0138685
0.0129699
0.014328
0.022334
0.039369
0.0464568
0.0497039
0.0595185
0.0821496
0.115654
0.124517
0.136053
0.145816
0.145474
0.14857
0.15833
0.154406
0.0941383
0.0462811
0.00316564
0.00139859
0.025199
0.0409653
0.0316286
0.0156541
0.0176234
0.0271889
0.0258153
0.0366369
0.0452567
0.0494197
0.049665
0.0518519
0.0636007
0.0973814
0.110259
0.119471
0.118875
0.127223
0.129852
0.141465
0.150652
0.137355
0.085446
0.00310266
0.0018809
0.0428356
0.0657133
0.060441
0.0433081
0.0297303
0.0357937
0.0329673
0.0400556
0.05314
0.0544176
0.0541465
0.0522189
0.0562432
0.0839455
0.100267
0.105232
0.112891