/*--------------------------------*- C++ -*----------------------------------*\
  =========                 |
  \\      /  F ield         | OpenFOAM: The Open Source CFD Toolbox
   \\    /   O peration     | Website:  https://openfoam.org
    \\  /    A nd           | Version:  11
     \\/     M anipulation  |
\*---------------------------------------------------------------------------*/
FoamFile
{
    format      ascii;
    class       volScalarField;
    location    "15";
    object      nut;
}
// * * * * * * * * * * * * * * * * * * * * * * * * * * * * * * * * * * * * * //

dimensions      [0 2 -1 0 0 0 0];

internalField   nonuniform List<scalar> 
17196
(
0.103569
0.103747
0.0681995
0.0326141
0.027729
0.0381793
0.0696522
0.0829098
0.0826918
0.130016
0.0861009
0.382928
0.270279
0.207133
0.202233
0.219671
0.255339
0.269218
0.314035
0.434337
0.914051
0.855254
0.549969
0.352646
0.236968
0.211127
0.190476
0.106262
0.0467015
0.0358804
0.0834447
0.0744808
0.111189
0.195052
0.243061
0.150625
0.370758
0.474856
0.399163
0.393658
0.526947
0.596835
0.564909
0.66976
0.709556
0.935503
0.986072
1.04207
0.846312
0.602024
0.220463
0.213335
0.135142
0.0766418
0.0469017
0.0560744
0.111224
0.239483
0.322544
0.318036
0.216848
0.328286
0.445064
0.541904
0.6023
0.628544
0.698923
0.70075
0.805552
0.773645
0.823402
0.879074
1.00165
1.07174
0.820549
0.224405
0.214832
0.148647
0.100116
0.0570801
0.0630756
0.137474
0.247675
0.272053
0.304076
0.295826
0.461914
0.577445
0.641031
0.672422
0.619847
0.760882
0.634341
0.65624
0.754233
0.790191
0.863115
1.01501
0.859685
0.83959
0.225559
0.214674
0.154398
0.132535
0.0689016
0.0809845
0.174223
0.228368
0.263263
0.303518
0.34629
0.539529
0.757742
0.882263
0.644351
0.588115
0.608484
0.586191
0.59997
0.607946
0.633935
0.783513
0.932951
0.860682
0.892994
0.227298
0.217008
0.158926
0.13115
0.0793747
0.116896
0.239376
0.213041
0.244369
0.278035
0.250098
0.431257
0.812747
0.857694
0.602334
0.586178
0.603041
0.592393
0.609612
0.629605
0.626661
0.687355
0.823182
0.880632
1.12199
0.229624
0.222851
0.162798
0.117691
0.0950719
0.153082
0.277317
0.217397
0.253129
0.269872
0.25252
0.424148
0.90742
0.781411
0.513216
0.470894
0.485776
0.530192
0.600972
0.622616
0.597465
0.648721
0.78013
0.879178
0.890524
0.228771
0.224683
0.171077
0.112869
0.119904
0.207443
0.314286
0.252528
0.275167
0.305315
0.321619
0.468809
0.780787
0.860863
0.520812
0.442186
0.445593
0.530493
0.628027
0.684559
0.640611
0.672373
0.819125
0.912462
0.862822
0.228497
0.220744
0.182444
0.111732
0.160143
0.265376
0.346839
0.297141
0.33585
0.347526
0.456623
0.424398
0.600889
0.803245
0.540108
0.451273
0.464915
0.61521
0.729876
0.839819
0.76377
0.720067
0.858823
0.988363
0.821497
0.225997
0.22093
0.191324
0.108297
0.205745
0.3204
0.374557
0.352057
0.335323
0.376505
0.555559
0.455921
0.602108
0.822162
0.573394
0.503338
0.499832
0.74475
0.942796
1.1218
0.956439
0.844694
0.959551
1.07091
1.20368
0.224743
0.220647
0.190443
0.0952625
0.249387
0.35383
0.386066
0.367168
0.324205
0.379987
0.551786
0.538093
0.567115
0.789447
0.676978
0.585024
0.60298
0.948227
1.44202
1.6886
1.44929
1.1699
1.24401
1.65397
1.36349
0.224102
0.221935
0.167498
0.0883401
0.280224
0.373911
0.397194
0.375409
0.337432
0.345809
0.464193
0.637623
0.566457
0.738635
0.74841
0.704172
0.750413
1.38541
2.22625
2.48251
2.3504
1.90221
1.79895
2.29753
2.06938
0.223738
0.21962
0.150302
0.0750716
0.309118
0.379801
0.397185
0.38165
0.372768
0.322434
0.462256
0.670823
0.721646
0.67447
0.771869
0.787388
0.90375
1.51779
2.55661
3.06133
2.92229
2.69268
2.74725
2.60111
1.74992
0.224386
0.216121
0.135848
0.0801479
0.332043
0.385084
0.40434
0.388973
0.389808
0.319264
0.411629
0.590136
0.665241
0.736157
0.757353
0.824551
0.984797
1.47674
2.23579
2.68541
2.73112
2.68184
2.50992
1.72173
1.40477
0.225501
0.216072
0.131399
0.0866112
0.359248
0.396161
0.414396
0.404027
0.398853
0.367247
0.392648
0.578014
0.713823
0.6921
0.819614
0.838508
1.00195
1.27077
1.52186
1.75653
1.93826
1.75758
1.21385
1.29118
1.27463
0.224424
0.213342
0.130379
0.103047
0.398073
0.398839
0.408418
0.41362
0.410631
0.391992
0.432518
0.561835
0.681569
0.756285
0.768749
0.881507
0.966967
1.04323
1.07528
1.0816
1.16376
1.00731
1.05172
1.40882
1.29658
0.223901
0.207703
0.124953
0.130678
0.441572
0.411673
0.408772
0.407038
0.396604
0.421455
0.429079
0.535868
0.623807
0.741469
0.836408
0.884701
0.914555
0.883281
0.852737
0.781492
0.749775
0.594624
0.840971
2.13682
1.76355
0.217498
0.204041
0.116323
0.163603
0.467584
0.445159
0.415621
0.416003
0.407824
0.42711
0.436081
0.517838
0.566138
0.672662
0.830219
0.86755
0.863805
0.793371
0.747814
0.661874
0.560245
0.507746
0.812357
1.59777
1.72046
0.216473
0.197725
0.100892
0.185158
0.474312
0.443119
0.429111
0.416132
0.419185
0.438535
0.455096
0.510149
0.528842
0.602107
0.766907
0.808144
0.796768
0.739008
0.689624
0.609364
0.471816
0.496092
0.622731
0.757431
0.696039
0.219941
0.184289
0.0848176
0.217296
0.438378
0.423779
0.418549
0.421153
0.43497
0.445306
0.457702
0.505894
0.500093
0.548139
0.692167
0.726654
0.739885
0.681352
0.638055
0.575809
0.42159
0.290678
0.439646
0.505848
0.210319
0.223451
0.166146
0.0736508
0.219768
0.386764
0.424765
0.431656
0.439497
0.434715
0.432234
0.439876
0.484678
0.470462
0.51026
0.621922
0.6341
0.641146
0.629029
0.582189
0.541818
0.4573
0.274331
0.302333
0.334725
0.196658
0.225819
0.140705
0.0729669
0.181219
0.373306
0.428492
0.455883
0.455608
0.426119
0.415038
0.415053
0.454183
0.451139
0.479479
0.526185
0.529559
0.501925
0.521973
0.511444
0.482565
0.463706
0.395973
0.307403
0.325161
0.242688
0.216319
0.123925
0.0885954
0.145772
0.374183
0.437516
0.451245
0.435531
0.389787
0.384601
0.391567
0.433473
0.436225
0.484538
0.490553
0.439948
0.424219
0.387784
0.374639
0.401118
0.40858
0.426087
0.35759
0.342716
0.305111
0.188174
0.104874
0.0848169
0.181185
0.317285
0.380026
0.398752
0.368951
0.327311
0.311139
0.329058
0.355198
0.384188
0.400319
0.377425
0.314861
0.315746
0.2563
0.312909
0.268318
0.326949
0.291062
0.312102
0.315404
0.259912
0.0979262
0.10564
0.176486
0.148953
0.131862
0.130111
0.138731
0.159652
0.188663
0.233203
0.25059
0.27183
0.226149
0.161748
0.109988
0.093465
0.0997433
0.113398
0.125122
0.143711
0.133221
0.132793
0.119167
0.142615
0.13472
0.107881
0.100702
0.0833755
0.0389941
0.0574279
0.0517102
0.0608897
0.0970344
0.120885
0.155624
0.109097
0.454424
0.431652
0.499823
0.564891
0.578439
0.550935
0.591339
0.733906
0.769664
0.942161
0.953381
0.854351
0.83832
0.45224
0.0106782
0.0194
0.0422433
0.0940601
0.156589
0.23659
0.19268
0.172937
0.246815
0.334208
0.511175
1.3943
1.2839
1.35604
1.61657
2.19363
2.46913
2.38212
2.41144
2.31494
2.46726
2.40652
2.35967
2.3393
2.04251
0.01022
0.00975002
0.0188166
0.0389027
0.086499
0.319691
0.428164
0.398882
0.580444
0.80591
0.628694
1.30025
1.84468
2.11304
1.94402
2.105
2.30196
2.16077
2.71448
2.66956
2.62372
2.46357
2.16837
2.03151
1.90892
0.0102924
0.00842156
0.0190866
0.0325194
0.0402765
0.287621
0.431416
0.374733
0.562189
0.74528
0.981927
1.15087
1.41635
1.62204
1.71088
1.5534
1.52083
1.58338
1.67573
1.85715
1.78199
1.88691
1.89606
0.997991
1.31071
0.0103265
0.00810208
0.0198717
0.0293153
0.0265481
0.386056
0.471422
0.397045
0.543812
0.79983
1.16705
1.1239
1.4107
1.62264
1.3555
1.39022
1.21177
1.12815
1.26379
1.40786
1.39557
1.64032
1.77599
0.838614
0.911365
0.0103536
0.00809418
0.0201265
0.0284402
0.0577182
0.521125
0.545175
0.445493
0.51427
0.77474
1.23127
1.11179
1.4426
1.32555
1.0709
1.1311
1.18237
1.21913
1.13231
1.07955
1.24618
1.27176
1.71079
0.780252
0.0603313
0.0103589
0.00819346
0.0189738
0.0270536
0.141575
0.661732
0.675832
0.550616
0.561603
0.821564
1.0207
1.12578
1.52516
1.26449
1.1205
0.999421
1.05676
1.06365
1.00578
0.999154
1.1301
1.23017
1.50981
1.31841
0.714036
0.010323
0.0089438
0.0166962
0.0300379
0.138162
0.800813
0.746591
0.68803
0.617442
0.844073
0.987662
1.25382
1.99094
1.85133
1.05837
0.962013
0.894791
1.01303
1.11822
1.17678
1.08639
1.18272
1.34145
1.47009
1.06982
0.0103395
0.00983341
0.0173682
0.0334126
0.18698
0.875413
0.911192
0.782604
0.692182
0.808207
1.18786
1.26084
1.86735
2.29578
1.29427
0.977958
0.955092
1.21046
1.45685
1.7118
1.47599
1.21879
1.30947
1.59081
1.68272
0.0104167
0.0107626
0.0172809
0.0416642
0.172099
0.888764
0.97164
0.78839
0.668711
0.783652
1.19167
1.39282
2.0054
2.28825
1.40892
1.09009
1.16862
1.85682
2.31584
2.51448
2.13978
1.63967
1.43249
1.6523
1.75219
0.0105362
0.0115856
0.0165813
0.044317
0.268847
0.973906
0.984837
0.755783
0.644564
0.707359
1.03367
1.48319
1.93544
2.26614
1.78901
1.31832
1.53602
2.8714
4.19105
4.23441
3.35339
2.345
1.67171
1.69148
1.82554
0.0107193
0.0114367
0.0173992
0.0483772
0.403882
1.08203
1.11136
0.808543
0.667483
0.697793
1.00585
1.42086
2.17564
2.14348
2.36156
1.83674
2.54021
4.04166
6.20267
5.28675
4.19004
3.53952
2.35527
1.93535
1.80299
0.0109197
0.0111591
0.0187215
0.0604899
0.424831
1.07351
1.18539
0.853209
0.701897
0.703172
0.827651
1.4419
2.57412
2.02604
2.44054
2.31004
3.35583
5.3037
7.35138
6.0393
5.09583
3.76627
3.00536
2.44258
1.87265
0.0111548
0.0102934
0.0205972
0.0878524
0.527953
1.13828
1.21001
0.917512
0.758483
0.722357
0.776668
1.09517
2.55803
2.24876
2.62071
2.35427
3.63564
5.64453
7.29098
4.08817
3.20268
2.63442
2.98842
2.83937
2.04267
0.0112718
0.0095878
0.0239941
0.125343
0.548052
1.0972
1.27278
1.03652
0.815825
0.85889
0.923669
1.08436
2.05026
2.49236
2.87453
2.37709
3.57724
4.95598
5.73165
2.26365
1.97065
2.01147
2.6585
2.3105
2.09787
0.0112022
0.00988021
0.0314629
0.152968
0.513944
1.15702
1.36809
1.25041
0.942957
0.976463
1.14786
1.2198
1.77906
2.56932
3.02335
2.67383
3.4929
3.46892
4.19331
1.6818
1.30989
1.53186
2.2225
2.50832
2.3823
0.0110688
0.0105584
0.0384716
0.142272
0.511874
1.0815
1.44685
1.41103
1.0696
1.19052
1.39406
1.3698
1.59837
2.25158
2.62615
2.64506
3.21771
3.37198
2.959
1.99008
1.33724
1.26786
3.12825
3.72015
3.00273
0.010812
0.0122123
0.039093
0.141385
0.562169
1.0439
1.46268
1.60797
1.35254
1.39371
1.58727
1.52331
1.60249
2.10243
2.54387
2.64263
2.50859
2.68706
2.50201
2.10643
1.31698
1.33409
2.52598
3.03639
3.22477
0.0106924
0.0133702
0.0389289
0.199159
0.580421
1.0615
1.412
1.65415
1.66444
1.69295
1.87225
1.84272
1.62271
1.84713
2.34904
2.51696
2.54401
2.39735
2.40217
2.20613
1.35768
1.22831
1.58975
2.44472
3.27551
0.0108432
0.011468
0.0432623
0.390041
0.665128
1.0644
1.282
1.50879
1.73567
1.80828
1.96618
2.05639
1.69553
1.73991
1.94797
2.39684
2.18608
2.10007
2.00275
2.10177
1.47747
1.21238
1.2296
1.35611
2.02209
0.0108519
0.00989913
0.0643371
0.454603
0.700348
0.953502
1.04542
1.2782
1.53864
1.80891
1.9742
2.17732
1.85748
1.70692
1.9858
2.2909
2.125
1.95233
1.98207
1.95362
1.61299
1.1883
1.03922
1.0595
1.34631
0.0100796
0.0121946
0.121634
0.361768
0.677392
0.845997
0.961048
1.14671
1.3543
1.58024
1.76776
2.0323
1.98778
1.7355
1.82102
2.06424
2.0202
1.99667
1.99766
1.89497
1.5471
1.39449
1.20185
1.14941
1.00737
0.00940126
0.0255581
0.25509
0.399104
0.688005
0.86813
0.979491
1.04688
1.08263
1.14073
1.20611
1.58878
1.5865
1.39505
1.4327
1.55012
1.77532
1.93937
1.969
1.8223
1.64202
1.42769
1.22748
1.10265
1.00291
0.0146467
0.0951397
0.164582
0.35336
0.572262
0.791005
0.771747
0.66497
0.587238
0.545798
0.583839
0.833414
0.980154
0.971704
1.079
1.13836
1.18535
1.22018
1.324
1.2975
1.3128
1.24976
1.25701
1.27102
1.08881
0.0947466
0.137706
0.141915
0.11895
0.118993
0.12898
0.144732
0.161873
0.178535
0.215103
0.258217
0.33756
0.333877
0.266586
0.229867
0.236346
0.239651
0.199078
0.195367
0.194734
0.191347
0.202175
0.21827
0.207035
0.181364
0.110602
0.105032
0.0864352
0.0577341
0.0331475
0.0534835
0.0678399
0.107152
0.117613
0.174954
0.223183
0.539126
0.55626
0.560584
0.419942
0.368155
0.432611
0.449489
0.532975
0.601433
0.762164
0.767313
0.55572
0.535919
0.450605
0.00976919
0.0157949
0.0261887
0.0491071
0.0670207
0.168446
0.241432
0.282289
0.499904
0.287366
0.925117
2.8248
2.68261
2.29342
2.01574
2.17855
2.76963
3.37887
3.54071
3.04672
2.73798
2.83624
3.23064
3.10773
2.02886
0.00938248
0.00920345
0.00925533
0.0154619
0.0226991
0.104608
0.142307
0.198012
0.539267
0.767326
0.755758
2.12816
3.06619
3.45642
3.85165
3.638
3.47071
3.66689
3.63493
3.6452
2.97491
2.70387
3.29487
3.12446
0.572817
0.00940213
0.00888855
0.00824162
0.0107392
0.0483935
0.0951405
0.124515
0.1564
0.536834
0.94121
1.16186
2.20748
1.89395
2.16565
2.62433
2.12391
2.03771
2.08192
2.64602
3.50927
3.25776
2.87544
2.55141
2.61745
0.209132
0.0094059
0.00884361
0.00839372
0.00961884
0.0481308
0.213504
0.254603
0.279125
0.535898
1.14757
1.63963
2.77274
2.64382
2.03214
1.54705
1.42821
1.43464
1.37065
1.75345
1.94144
3.20986
3.5228
2.78457
1.01378
0.135248
0.00940936
0.00877756
0.0087569
0.00945396
0.045554
0.222084
0.361194
0.372743
0.479537
1.24924
1.94496
3.4698
2.49793
1.60494
1.45252
1.27852
1.26453
1.33108
1.29351
1.25524
1.48982
1.96473
1.42446
0.267106
0.137148
0.00941529
0.00871574
0.00892992
0.00902407
0.0385222
0.333217
0.30522
0.379608
0.45162
1.19147
1.85965
3.13247
3.28442
1.85499
1.1432
1.03873
1.07414
1.16503
1.36702
1.00181
1.0622
1.16948
1.01887
0.359059
0.148144
0.00941395
0.00878398
0.00883919
0.00888484
0.00651706
0.314181
0.355253
0.441562
0.493752
1.00827
1.96807
3.32252
4.16219
2.62058
1.0779
0.972717
0.98027
1.05323
1.01696
0.99246
0.846456
0.985688
0.997767
0.698561
0.160444
0.00941321
0.00886057
0.00870916
0.00899277
0.014197
0.244222
0.422241
0.39445
0.50988
0.804176
1.66798
3.43107
4.39868
3.15382
1.33019
1.03721
0.941587
0.93027
0.967243
0.906237
0.783777
0.791864
0.815958
0.781625
0.688755
0.00940216
0.00910264
0.00783884
0.0107971
0.0151892
0.214862
0.282343
0.364529
0.456634
0.688661
1.2622
2.86229
4.75596
3.58272
1.49527
1.01064
1.05668
1.16223
1.32544
1.05363
0.861313
0.653218
0.528536
0.627068
0.523778
0.00939847
0.00920675
0.00761753
0.0102932
0.0569073
0.161201
0.203794
0.323922
0.399176
0.569729
0.988084
1.95533
4.3032
3.47703
1.90408
1.15692
1.49297
2.11986
2.58508
2.22704
1.35376
0.618938
0.50991
0.458622
0.677903
0.0094081
0.00923804
0.00758085
0.010191
0.0998962
0.203074
0.207165
0.241227
0.376714
0.529814
0.860236
1.38366
3.22361
3.79831
2.27202
1.55063
2.79631
4.32057
5.58288
5.03577
3.68187
2.1426
1.1175
0.705174
0.537011
0.00941136
0.00920798
0.00763509
0.0108493
0.097986
0.249198
0.262158
0.262339
0.316684
0.43842
0.664876
1.09078
2.28911
3.84258
2.95363
2.15227
4.10559
6.71622
6.91451
6.90831
6.12255
4.86901
2.2193
0.984088
0.621773
0.0094312
0.00907619
0.00798251
0.0129675
0.127238
0.284692
0.285541
0.294236
0.325939
0.400062
0.706531
0.934943
1.57908
3.21345
3.32696
2.56848
4.55494
7.18603
6.40897
6.04282
5.78115
5.11016
4.45136
1.88251
0.655448
0.00945487
0.00887405
0.0087294
0.0167074
0.174425
0.43705
0.420168
0.337456
0.385683
0.480752
0.881053
1.07213
1.44982
2.7248
3.0985
2.65805
4.60709
6.64337
5.04911
4.65325
5.4114
5.83358
4.68901
3.05797
0.818503
0.00949529
0.00844649
0.00998078
0.021284
0.194773
0.684087
0.633714
0.518934
0.432349
0.496194
0.956356
1.22418
1.36729
2.17766
3.09593
2.691
4.17111
5.68441
5.29351
4.28705
4.39706
4.50798
5.08011
3.85706
1.07922
0.00955063
0.00779475
0.0127922
0.0254233
0.198277
0.761586
0.795565
0.724162
0.599105
0.72758
1.20897
1.52623
1.60517
1.93083
2.47002
2.41242
3.45377
4.80092
4.48971
4.23666
3.78015
4.1276
4.68345
4.01306
2.04509
0.00950502
0.0081591
0.0267165
0.063383
0.222879
0.832889
0.957843
0.895169
0.741645
0.946692
1.41424
1.70312
1.72393
1.84333
2.0172
2.46964
2.71519
3.37589
3.57169
3.40074
3.23902
3.58136
4.21601
3.85708
2.96765
0.00946712
0.00853807
0.062158
0.138027
0.385304
0.958295
1.25781
1.2682
1.09465
1.4273
1.58292
1.87036
1.90573
1.89026
1.77727
2.21827
2.40926
2.61199
2.56617
2.58863
3.07684
2.74362
3.2821
3.33656
3.20183
0.00943139
0.00914776
0.074606
0.26496
0.609926
1.19763
1.77373
1.69577
1.99979
1.83596
2.1224
2.2712
2.20898
1.92827
1.75153
1.89046
2.13401
2.19218
2.22129
2.14254
2.28428
2.17228
2.15398
2.78584
3.1426
0.00920542
0.0109978
0.120079
0.550001
1.28495
1.66425
1.96743
1.92741
2.00056
2.10807
2.324
2.50056
2.49384
2.09787
1.89163
1.93094
2.09757
2.10023
2.0198
2.09654
2.00545
1.91818
1.8117
1.79107
2.84032
0.00865482
0.0169133
0.239793
0.890794
1.21522
1.37433
1.58182
1.68221
1.99373
2.10152
2.36252
2.24288
2.52774
2.49695
2.16291
2.0611
2.0902
2.00017
2.01473
2.15321
2.01889
1.99895
1.75518
1.34163
1.82994
0.00914417
0.0351343
0.441346
0.643503
0.939476
0.991603
1.01307
1.0625
1.37457
1.76557
1.84691
1.86474
2.01915
2.27614
2.31976
2.19318
2.25194
2.14201
2.27723
2.18999
2.18794
1.84581
1.45918
1.26748
1.5078
0.0154697
0.13926
0.253042
0.592417
0.876332
0.873845
0.854941
0.843809
0.87239
0.856725
0.969959
1.26034
1.42109
1.51411
1.55006
1.58313
1.75989
2.16767
2.42716
2.41656
2.32901
2.20843
1.90143
1.53911
1.42279
0.0930622
0.140581
0.143499
0.139749
0.146673
0.167536
0.204756
0.192223
0.208015
0.241374
0.297423
0.389424
0.406627
0.406464
0.39584
0.361215
0.329974
0.295223
0.268549
0.253008
0.248787
0.246281
0.23903
0.233562
0.207357
0.110558
0.102414
0.0782581
0.0564173
0.0446247
0.0612042
0.0701518
0.110243
0.137735
0.139715
0.221896
0.468431
0.486576
0.464241
0.360472
0.364437
0.39202
0.393526
0.463193
0.582101
0.753108
0.663385
0.524882
0.513016
0.379333
0.0099339
0.0154156
0.0278023
0.0622874
0.149714
0.19537
0.219335
0.264837
0.862526
0.365792
0.828693
2.74609
3.18659
2.67351
2.07071
1.93839
2.25931
2.73339
2.26906
1.91182
1.79123
1.68957
1.28424
1.15358
1.11817
0.00939625
0.00895061
0.00943954
0.0163109
0.055688
0.10116
0.12449
0.222537
1.22682
1.18606
1.10728
3.19201
4.59646
3.33244
2.89911
2.88747
2.89791
3.56994
3.2011
2.47579
2.16001
2.33066
2.32287
2.09531
1.89746
0.0093963
0.00890599
0.00774431
0.00979946
0.0402541
0.0888713
0.123518
0.286644
1.1775
1.63723
1.86113
3.21816
3.16728
3.63516
2.94546
2.67763
2.7538
2.73721
3.44994
3.38493
3.00747
2.88405
2.59704
2.67372
2.21594
0.00939355
0.00884678
0.00806405
0.00761861
0.031914
0.104278
0.152276
0.198333
0.939522
2.12548
2.7293
3.95981
3.31071
2.62551
2.19819
2.1501
2.19584
2.44191
3.09404
4.3758
4.66491
3.8413
3.26979
3.42304
2.04872
0.00940404
0.00874016
0.0084379
0.00727628
0.0354229
0.101848
0.160194
0.238957
0.768266
2.60641
3.15197
4.84736
4.14613
2.78498
1.93915
1.81725
2.05267
2.49976
3.08464
3.55769
4.7009
4.54502
3.62723
3.59692
1.95956
0.00939877
0.00885565
0.00830168
0.00700701
0.0293466
0.110431
0.198065
0.267184
0.661557
2.22162
3.11523
5.64657
6.2363
3.77513
1.71227
1.50426
1.55334
1.84374
2.31082
3.22822
4.32017
4.19946
4.04382
3.78914
2.09604
0.00940081
0.00894883
0.00835343
0.00718312
0.0254989
0.131565
0.221468
0.284776
0.61567
1.74614
2.98743
4.8063
7.03786
3.87702
1.73319
1.42677
1.47563
1.57619
1.57021
2.07995
3.60478
4.11003
4.0567
3.69471
1.8197
0.00940595
0.00890722
0.0085334
0.00749103
0.014073
0.104912
0.20925
0.2644
0.5472
1.36298
2.50612
3.85523
6.172
4.4981
1.92511
1.39555
1.36662
1.33585
1.44174
1.61683
1.91206
3.17791
3.74278
2.08345
0.243138
0.00940911
0.00891004
0.00863963
0.00748414
0.00825046
0.0594746
0.183341
0.282297
0.47442
1.01702
1.8196
2.74655
4.81912
5.08828
2.18289
1.48555
1.4131
1.63682
1.52155
1.1534
1.08194
0.990013
0.941909
0.0627895
0.0221716
0.0094094
0.00886881
0.00878184
0.00738848
0.0113135
0.0227458
0.131466
0.235955
0.439469
0.734152
1.31185
1.92785
3.5885
4.83857
2.2702
1.48051
1.90372
2.13876
1.84988
1.521
0.97564
0.0982694
0.0968154
0.0420925
0.0162869
0.00941169
0.00888484
0.00870618
0.00778855
0.0156314
0.0334609
0.0984816
0.189472
0.391922
0.621368
1.07242
1.54629
2.66021
4.578
2.61447
1.75093
3.10719
4.13442
4.36856
3.52837
1.94381
0.768904
0.292005
0.075475
0.0093771
0.00940271
0.00897271
0.008502
0.00803715
0.0150054
0.0510547
0.115213
0.197207
0.289911
0.495825
0.781841
1.15072
1.96112
4.02583
3.39208
2.73879
4.01887
6.46148
7.70054
7.75526
5.70716
2.56219
0.732408
0.0800443
0.00960114
0.00940206
0.00903822
0.00820113
0.00861953
0.0171973
0.0913565
0.116837
0.184187
0.279857
0.427132
0.729798
0.978445
1.47519
2.95572
3.20096
3.38964
4.56749
6.74878
7.90316
8.66606
7.8971
5.70993
2.79442
0.318409
0.0102371
0.0094142
0.00887776
0.00789631
0.0095601
0.0245318
0.102051
0.14654
0.254671
0.328105
0.50095
0.875488
1.08775
1.36145
2.19268
3.28821
3.32162
4.17176
6.02532
6.95512
7.3063
7.01233
7.08995
4.44911
1.3162
0.0127354
0.00949142
0.00763154
0.0124051
0.0140407
0.0297562
0.161705
0.272541
0.318144
0.359286
0.497595
0.818551
1.20226
1.31393
1.68118
2.70107
2.95852
3.67561
5.18974
5.4634
5.6705
5.99809
6.13599
4.86844
2.10574
0.0386518
0.00949031
0.00778756
0.0228091
0.0390608
0.0510149
0.194027
0.471794
0.489625
0.484646
0.685864
1.04955
1.29812
1.36883
1.62404
2.10973
2.68023
2.83829
3.9194
4.16185
4.56901
4.6163
4.84006
5.10562
2.7885
0.760868
0.00946208
0.00832875
0.0420434
0.111174
0.118562
0.238276
0.494417
0.658864
0.743446
0.82194
1.2149
1.47593
1.55272
1.57952
1.72104
2.19206
2.67555
2.85632
3.06622
3.70866
3.6392
3.73217
4.11024
3.77753
1.99779
0.00935379
0.00977778
0.115153
0.281618
0.290303
0.415892
0.678852
0.762414
0.819422
0.94693
1.29864
1.52801
1.64605
1.64902
1.68084
2.00647
2.46589
2.46871
2.76962
2.73968
3.10569
3.31769
3.56005
3.33821
3.23068
0.0090207
0.0125009
0.226606
0.415953
0.466555
0.598244
1.24749
1.89536
1.72893
2.12602
2.01617
2.01981
2.02911
1.94113
1.69347
1.76982
2.11155
2.1242
2.23466
2.18929
2.43277
2.59141
3.05277
3.15073
3.31347
0.00837892
0.0183787
0.360177
0.88942
0.987625
1.49136
2.59651
2.89392
3.11328
3.1085
2.94735
2.52523
2.4143
2.13455
1.96561
1.80501
1.87212
1.91894
1.97108
1.85687
1.90256
1.99122
1.98529
2.85076
3.19612
0.0084639
0.031872
0.595407
1.08816
1.60417
1.88419
2.07249
2.17703
2.54617
3.12743
3.32031
2.854
2.64842
2.37215
2.27599
2.00644
1.96401
1.93361
1.99591
1.91015
1.82763
1.90291
1.90105
1.69119
2.32498
0.00922367
0.0795802
0.804603
0.915943
1.21476
1.4288
1.34892
1.29242
1.66798
2.1445
2.46251
2.29663
2.28683
2.46105
2.56695
2.43997
2.23301
2.06597
2.12238
2.06858
1.95653
1.69399
1.76872
1.64278
1.51057
0.0155356
0.203357
0.498548
1.00793
1.50389
1.3398
0.933122
1.03515
1.14425
1.24046
1.44793
1.61971
1.77256
1.93076
2.04218
2.03703
2.15364
2.53903
2.46814
2.42833
2.15501
1.85539
1.47818
1.27331
1.37978
0.0972225
0.184718
0.192184
0.174781
0.177887
0.20836
0.203316
0.204283
0.217352
0.279455
0.352007
0.42812
0.450942
0.424901
0.406867
0.364676
0.327694
0.309005
0.289859
0.273712
0.2489
0.228441
0.206789
0.196816
0.187549
0.115258
0.0946538
0.0693801
0.0513346
0.0465813
0.0620384
0.073978
0.12273
0.166066
0.160302
0.18332
0.349565
0.39118
0.380552
0.363279
0.398933
0.482489
0.632491
0.610614
0.752413
0.820209
0.61224
0.544198
0.444798
0.428091
0.0102742
0.0141242
0.0323713
0.0754518
0.158147
0.177958
0.172359
0.447821
1.28732
0.726573
0.6537
2.40401
3.33714
3.61597
2.08878
1.31347
2.29137
3.40505
3.53713
2.78573
1.92152
1.92208
1.2712
1.02181
0.733153
0.0094403
0.00837093
0.0104447
0.0277497
0.0787165
0.101015
0.123071
0.443324
1.7657
1.9597
1.15904
2.7779
4.15866
3.56881
2.7612
2.56522
3.629
3.99198
3.58489
3.17755
2.65535
1.33903
1.32936
1.34998
0.673398
0.00940052
0.00878569
0.00765921
0.012333
0.0423642
0.0817419
0.122412
0.458954
1.67689
2.92405
2.19665
4.20036
5.0336
3.44777
3.25107
3.02817
3.84555
4.38008
3.85811
3.67137
3.32065
1.89843
1.09262
1.48741
0.788451
0.0093886
0.00888475
0.00760209
0.0088038
0.0302806
0.0746349
0.120963
0.43829
1.69546
4.077
3.70731
4.93217
5.43767
4.27456
3.03204
2.9322
3.55666
3.98659
4.34742
4.38464
3.20479
2.97794
0.805933
1.0953
0.611079
0.0093982
0.00886012
0.0079623
0.00749995
0.0210548
0.0722976
0.16913
0.438437
1.5713
4.56152
4.77178
5.8837
5.78935
5.41533
2.86701
2.61625
3.25801
3.41902
4.53614
4.6166
4.00293
3.05645
1.34049
1.09146
0.114965
0.00938959
0.00891452
0.00807184
0.00726986
0.0132967
0.0527468
0.187705
0.452848
1.40574
3.8509
6.08968
6.5577
7.43785
5.85607
2.78405
2.28024
2.59222
2.53803
3.62208
4.09833
4.23859
3.08475
2.0117
0.894141
0.053991
0.00940881
0.00892608
0.00825332
0.00719199
0.0132488
0.0526018
0.141026
0.409923
1.22019
3.02227
5.84758
6.11104
7.14981
7.33967
3.04299
2.32915
2.49682
2.47173
2.7646
2.95859
3.93491
3.40401
2.35668
1.14308
0.0878647
0.0094113
0.00889743
0.00843165
0.00736534
0.0124861
0.0624166
0.167928
0.41388
0.969236
2.35456
5.04832
4.88265
5.92714
7.4719
3.54087
2.43823
2.60849
2.88929
2.83373
2.66523
2.331
3.02208
2.15839
0.924149
0.00020807
0.00941287
0.00896541
0.00841349
0.00779947
0.00962821
0.0498493
0.180545
0.431346
0.784866
1.67495
3.81179
3.86427
4.4972
5.64535
4.23639
2.33989
2.91099
3.54652
3.06263
2.29893
1.50143
1.58553
0.944718
0.220604
0.010974
0.0094057
0.00902137
0.00836819
0.00896694
0.0132618
0.0359197
0.147949
0.431833
0.64208
1.11041
2.37384
3.18216
3.51856
4.56001
4.14811
2.48874
3.25608
5.04197
4.06792
3.17855
1.95062
0.566404
0.233093
0.0390839
0.0141432
0.00939589
0.00925306
0.00781475
0.0109178
0.0218715
0.0440882
0.101587
0.358526
0.549199
0.825517
1.54952
2.58221
2.84483
4.1478
4.09098
2.68832
3.78748
7.0294
5.90649
4.15086
2.70609
1.0573
0.597868
0.22486
0.0259439
0.00939461
0.00924198
0.00795708
0.0137125
0.0299145
0.0659616
0.106212
0.227429
0.503534
0.658295
1.05515
1.87471
2.24373
3.67672
3.99927
3.60228
4.3652
6.47317
7.29989
6.87824
3.99206
1.93103
0.966067
0.203315
0.0144542
0.00942677
0.00892774
0.00856623
0.0240548
0.0332461
0.0733226
0.132499
0.227833
0.4577
0.625703
0.82929
1.31432
1.75729
2.88754
3.52351
3.86696
4.33742
6.21001
7.43918
8.01009
6.87138
3.92607
1.4885
0.467113
0.0755797
0.00950126
0.00782341
0.012902
0.0508535
0.0422547
0.0539877
0.16603
0.207515
0.393787
0.601857
0.704146
1.06872
1.38095
2.00578
3.16249
3.59513
4.00978
5.35572
6.35322
6.48585
6.74615
5.77696
3.73585
1.59655
0.526058
0.00947928
0.0080638
0.0734368
0.130347
0.0840572
0.0829705
0.179792
0.211141
0.308901
0.578512
0.875143
1.0517
1.32855
1.69475
2.17083
2.91631
3.04066
3.96318
4.66371
4.6569
5.02424
5.05142
3.51057
1.7335
1.24257
0.00942889
0.00853658
0.136517
0.282409
0.197395
0.141027
0.266552
0.265729
0.302489
0.492432
0.892953
1.05436
1.19857
1.43606
1.7369
2.38374
2.64291
3.16609
3.45317
3.54698
4.01689
3.9527
4.14005
2.25381
0.953808
0.00935812
0.00985365
0.211298
0.37471
0.323008
0.204827
0.290006
0.513198
0.517523
0.780069
1.03455
1.16993
1.21913
1.33085
1.49052
2.19299
2.42111
2.67473
2.84639
3.26699
3.5346
3.9124
3.98004
3.38714
1.80926
0.00914605
0.0115867
0.33555
0.590332
0.581749
0.481795
0.406132
0.582949
0.604001
0.779239
1.16246
1.29424
1.33801
1.39495
1.49614
1.95834
2.40126
2.57121
2.86387
3.10012
3.62548
3.66121
3.58378
3.18177
3.15779
0.00849819
0.0171859
0.587958
1.01703
0.88469
0.642304
0.686511
1.3284
1.25029
1.53475
1.62797
1.88851
2.04596
1.9772
1.59654
1.70834
2.07818
2.16681
2.20732
2.43892
2.77413
3.07646
3.58079
3.07626
3.13857
0.00840687
0.0347935
0.996545
1.52429
1.3112
1.6048
3.18292
3.26814
3.59751
3.66094
3.40781
2.87987
2.60929
2.50266
1.9319
1.87
1.90734
1.92589
1.84967
1.95472
2.18773
2.24433
2.63819
3.01241
3.33986
0.00850034
0.100808
1.3924
1.51387
1.84859
2.38703
2.85531
2.80464
3.29321
4.33477
4.05323
3.47121
3.06338
2.80861
2.24214
2.08813
1.95308
1.927
1.77211
1.68912
1.7315
1.83783
1.84714
2.05682
2.55709
0.00942878
0.217433
0.989958
1.34407
2.03298
2.25802
2.11883
2.06528
2.38318
3.19891
3.27733
2.87619
2.61067
2.63695
2.62973
2.25235
2.17646
1.96591
1.90505
1.84439
1.67592
1.67919
1.68651
1.55465
1.46144
0.0153825
0.399403
0.58784
1.19524
2.21347
1.86825
1.30667
1.4637
1.38481
1.5531
1.7973
1.80035
1.79932
1.99071
2.24018
2.46712
2.61688
2.53556
2.29808
2.08488
1.8848
1.58163
1.38133
1.23468
1.13311
0.106231
0.243106
0.21313
0.190245
0.180176
0.209387
0.198733
0.209249
0.252046
0.342596
0.43719
0.513086
0.481748
0.434744
0.396593
0.353497
0.320729
0.301967
0.282105
0.261345
0.233275
0.204756
0.182982
0.174808
0.164224
0.116594
0.0921612
0.0619552
0.0478679
0.0491908
0.0579056
0.0811914
0.157755
0.201251
0.191159
0.216779
0.244542
0.288168
0.34866
0.365182
0.361762
0.404682
0.70139
0.817406
0.902628
0.883147
0.728905
0.841313
0.845818
0.578907
0.0104393
0.0128128
0.0327668
0.0863343
0.156094
0.154878
0.208716
0.765246
1.76916
1.78165
0.630968
1.65188
3.0552
3.26996
1.95579
1.04586
2.41771
2.92752
2.99823
1.97262
1.56037
2.08564
0.949473
0.47816
0.0472305
0.00948085
0.00759226
0.0104727
0.0376364
0.076823
0.0911592
0.16223
0.824439
2.41425
3.00179
1.53323
2.44099
4.07852
3.803
2.71731
2.7333
3.2767
3.85358
3.73878
2.67946
2.01313
0.917548
0.455139
0.147383
0.0156948
0.00940086
0.00870001
0.00756685
0.016404
0.0382035
0.0571296
0.166253
0.97193
2.75826
3.99995
2.67839
3.51128
4.61231
4.34552
3.14854
3.28649
3.91093
4.72348
4.08825
3.048
2.19023
1.00747
0.0226158
0.0182362
0.007263
0.00938012
0.00892331
0.00719207
0.0105939
0.0234185
0.0381148
0.20713
1.02059
2.66434
4.97324
4.045
4.4976
5.31537
5.61475
3.8887
3.76099
4.42373
4.44587
4.26497
3.69406
2.55277
1.38186
0.0154138
0.0135744
0.0126814
0.00938554
0.00899896
0.00716219
0.00915455
0.0147688
0.0537758
0.244955
0.980731
2.82951
5.57254
5.70663
5.86289
6.85674
6.47317
4.4861
3.56962
4.49723
4.47874
4.24438
3.63437
2.86323
1.57322
0.128816
0.0111649
0.00679713
0.00938598
0.00892008
0.00781954
0.00829225
0.0119876
0.071572
0.283303
0.902629
2.70787
4.64666
7.61992
7.03262
7.62048
7.81803
5.03856
3.8135
4.63416
4.51304
4.43925
3.66679
2.76462
1.42745
0.296653
0.0451512
0.0141606
0.00940452
0.00881298
0.00813158
0.00751655
0.0131632
0.0756649
0.295391
0.843741
2.38262
4.03974
7.06694
7.0634
7.67113
7.93923
6.28366
4.00629
4.79691
5.35229
4.62354
3.8711
3.03021
1.31996
0.595648
0.1649
0.0136126
0.00939408
0.00887701
0.00806047
0.00843032
0.0177277
0.0935115
0.356134
0.81892
1.85758
3.40582
5.76842
6.96169
6.63407
7.47908
6.66104
4.13697
4.88639
6.35174
5.73097
4.22199
2.53456
1.21705
0.728848
0.148929
0.008792
0.00940397
0.0089989
0.00769072
0.00947027
0.0323878
0.127278
0.428695
0.967302
1.39506
2.59396
4.45819
6.55952
5.34777
5.65537
6.35992
4.50159
5.12691
7.07589
6.21728
5.33898
3.4834
0.719505
0.378308
0.0762359
0.0136566
0.0093973
0.00905912
0.00776059
0.0251716
0.0821712
0.189483
0.453735
0.867954
1.14608
1.94339
3.22619
5.7057
4.49513
4.66979
5.2713
4.55564
5.22024
7.267
6.2264
6.22792
5.85771
2.01596
0.264142
0.319299
0.0228009