/*--------------------------------*- C++ -*----------------------------------*\
  =========                 |
  \\      /  F ield         | OpenFOAM: The Open Source CFD Toolbox
   \\    /   O peration     | Website:  https://openfoam.org
    \\  /    A nd           | Version:  11
     \\/     M anipulation  |
\*---------------------------------------------------------------------------*/
FoamFile
{
    format      ascii;
    class       volScalarField;
    location    "15";
    object      omega;
}
// * * * * * * * * * * * * * * * * * * * * * * * * * * * * * * * * * * * * * //

dimensions      [0 0 -1 0 0 0 0];

internalField   nonuniform List<scalar> 
17196
(
0.0216105
0.019328
0.0171536
0.0133469
0.0118315
0.014739
0.0157203
0.0178557
0.0204455
0.0218938
0.0346606
0.047951
0.0432613
0.037354
0.0429569
0.0480943
0.0475268
0.0458828
0.048063
0.0482698
0.0469284
0.045456
0.0431408
0.0414613
0.0326798
0.0110991
0.0102459
0.00914415
0.00759702
0.00677009
0.00733479
0.00791974
0.00930558
0.010969
0.00973818
0.0153132
0.0222268
0.025251
0.0266954
0.0267141
0.0293948
0.0283459
0.0280579
0.0280949
0.0290075
0.0289478
0.02834
0.0268725
0.0262668
0.0212779
0.0110788
0.0103521
0.00938149
0.00772419
0.00736093
0.00843553
0.0101773
0.012758
0.01355
0.0151822
0.0176348
0.0281327
0.0279128
0.028254
0.0277048
0.0307729
0.0309483
0.0284972
0.028963
0.0324334
0.0319626
0.0300156
0.027339
0.0257433
0.0217685
0.0110693
0.0104083
0.00953664
0.00793842
0.00764553
0.0106098
0.0124861
0.0135717
0.0137901
0.0152213
0.0182458
0.0278006
0.0309474
0.0310959
0.0282748
0.0272609
0.0287942
0.0297112
0.0296032
0.0305483
0.0303387
0.0286662
0.0271166
0.0230738
0.0205185
0.0110633
0.01041
0.0099847
0.00794756
0.00879553
0.0128485
0.0138607
0.0137144
0.014127
0.0151431
0.0192211
0.0291016
0.0291106
0.0298405
0.0286327
0.0265025
0.0273869
0.0256984
0.0258779
0.0283756
0.0286371
0.0282638
0.0262351
0.0219036
0.0190246
0.0110568
0.0104495
0.0100743
0.00817235
0.0105113
0.0146337
0.0150745
0.0141205
0.014422
0.0151714
0.0171998
0.0283536
0.0296316
0.0277627
0.0256764
0.0264705
0.0265021
0.0271794
0.0271366
0.0281681
0.0284277
0.0277977
0.0257994
0.0226271
0.0178094
0.0110033
0.0105418
0.0100209
0.00880002
0.0124944
0.0158907
0.0160298
0.0151059
0.0152507
0.0159478
0.0169192
0.0281178
0.029281
0.0262721
0.0235072
0.0229426
0.0236055
0.0243312
0.0265985
0.027724
0.0278347
0.0273652
0.0260879
0.0234891
0.0130143
0.010956
0.0105979
0.00999969
0.00958942
0.0146876
0.0174037
0.0175129
0.016682
0.016613
0.0172155
0.0171175
0.027489
0.0281566
0.0279371
0.0257932
0.0228706
0.0239348
0.0260619
0.0291037
0.030013
0.0293493
0.0285567
0.0268655
0.0239576
0.0191565
0.0109636
0.0105762
0.00992369
0.00990862
0.0167477
0.0186322
0.0188675
0.0182686
0.0182147
0.0178474
0.0186897
0.0248578
0.0264759
0.0265161
0.0250306
0.0234002
0.0254364
0.0303142
0.0344423
0.0345406
0.0320047
0.0294423
0.0275177
0.0244845
0.0213388
0.0109331
0.010578
0.00978325
0.01037
0.0184496
0.0199078
0.0200637
0.0196856
0.0190901
0.0188537
0.0197768
0.0259615
0.0265499
0.0278254
0.0271213
0.0273684
0.0276531
0.0348212
0.0402059
0.0411987
0.0355665
0.0311332
0.0285815
0.0263694
0.0205498
0.0109615
0.0105042
0.00954179
0.0109401
0.0198188
0.0209005
0.0210297
0.0203367
0.0190026
0.0192697
0.0208059
0.0249918
0.0289387
0.0271236
0.0282618
0.0298408
0.0310024
0.0378605
0.0481492
0.0464076
0.0410019
0.034712
0.0308483
0.0273193
0.0233261
0.0109575
0.0104296
0.00944277
0.0117493
0.0207699
0.0217871
0.0219834
0.0211695
0.0200114
0.0196081
0.0211699
0.0253527
0.027377
0.0273116
0.0291389
0.0318525
0.0333796
0.0411145
0.0489927
0.0501503
0.0468795
0.0394243
0.0337904
0.0295465
0.0248273
0.0108494
0.0103789
0.00929956
0.0130249
0.0214998
0.0224822
0.0226402
0.0220849
0.0215296
0.0195779
0.0228158
0.0257538
0.0286935
0.0272517
0.029516
0.0334146
0.0341935
0.0394209
0.0443634
0.0468298
0.045555
0.0413592
0.0345193
0.0288466
0.0239474
0.0108113
0.0102547
0.00927401
0.0117943
0.0219755
0.0230799
0.0234906
0.0230244
0.0226336
0.0205304
0.0241103
0.0265529
0.0289724
0.0286691
0.0294576
0.0326966
0.0335887
0.0356236
0.0385383
0.0391317
0.0397481
0.0368072
0.0306987
0.0264227
0.0221514
0.0108181
0.0102756
0.00930947
0.0122493
0.02233
0.0234416
0.0239499
0.0240794
0.0236047
0.0228539
0.0238692
0.0263361
0.0282549
0.0294415
0.0311024
0.0329821
0.032201
0.0310017
0.0313442
0.0321492
0.0329243
0.0312242
0.0275866
0.0236808
0.0208038
0.0108311
0.010281
0.00979287
0.0128528
0.0226739
0.0238043
0.0240544
0.0242403
0.0242754
0.0237634
0.0244394
0.0259834
0.0274074
0.0292372
0.0316764
0.032626
0.0309621
0.0282681
0.0269879
0.0266699
0.0269905
0.0261026
0.0214851
0.0221101
0.0232544
0.010901
0.0102904
0.0100031
0.0132606
0.0228192
0.023712
0.0239467
0.0244589
0.0246839
0.0245818
0.0248648
0.0255124
0.0266716
0.02884
0.0311756
0.0318187
0.0299859
0.0265427
0.0243728
0.0234104
0.0231712
0.022216
0.0251481
0.0269705
0.0277557
0.0109015
0.0104643
0.0101125
0.0145713
0.0230324
0.0238779
0.0239504
0.0243693
0.0246537
0.024743
0.0248057
0.0249812
0.0257289
0.0279673
0.0304959
0.030947
0.0288746
0.0257068
0.0234553
0.0222175
0.021357
0.0207971
0.0210725
0.0208175
0.0199835
0.0109095
0.0105439
0.0100546
0.014788
0.0227813
0.0239466
0.0238709
0.0242154
0.0245424
0.0245598
0.0241876
0.0243988
0.0249331
0.0270344
0.0295642
0.0297706
0.0278385
0.0253766
0.0232246
0.0217593
0.0207291
0.0197874
0.0192158
0.0193135
0.0193109
0.0109383
0.0105588
0.00993613
0.0158228
0.022676
0.0239379
0.0237379
0.0243194
0.024077
0.02388
0.0233392
0.0235744
0.023924
0.0260447
0.0283231
0.0285165
0.0273966
0.0249577
0.0230407
0.0217112
0.0204389
0.0194456
0.0184378
0.0186807
0.0198359
0.0109412
0.0105888
0.0096402
0.0174894
0.0225442
0.023559
0.0239019
0.0241733
0.0232549
0.0227993
0.0222617
0.0224477
0.0229636
0.0247852
0.0265859
0.0271351
0.0268348
0.0249108
0.0232427
0.0218043
0.0206876
0.019647
0.018933
0.0182863
0.0184746
0.0109102
0.0102047
0.00932015
0.0171368
0.0225703
0.0233405
0.0235385
0.023628
0.022234
0.0216919
0.0212164
0.0213821
0.0220782
0.0229813
0.0237756
0.0249391
0.0252639
0.0245816
0.0231738
0.0219966
0.021151
0.0204317
0.0199993
0.0193683
0.0185983
0.0108449
0.0097979
0.00908938
0.0159498
0.0211411
0.0222952
0.0224422
0.0220112
0.0208405
0.0203252
0.0201232
0.0201579
0.0206311
0.0210217
0.0207187
0.0224054
0.022807
0.0232353
0.0230495
0.0217453
0.0211739
0.020598
0.0201596
0.0209733
0.0200176
0.0109253
0.00952022
0.0100193
0.0148592
0.0192024
0.020012
0.0205735
0.0204385
0.0193738
0.0191986
0.0187489
0.019212
0.0192776
0.0187246
0.0176046
0.0183164
0.0199944
0.0201419
0.0211922
0.0213084
0.0212569
0.0212509
0.0202022
0.0200014
0.0197204
0.0211815
0.018844
0.0258809
0.029006
0.0308828
0.0322328
0.0330211
0.0330457
0.0319328
0.0317663
0.03195
0.0325224
0.0321842
0.0298183
0.0276552
0.0274894
0.0310003
0.032378
0.033036
0.0343336
0.0350977
0.0341358
0.0351426
0.0330873
0.0322167
0.0218466
0.020061
0.0185764
0.014985
0.0118779
0.0159321
0.0180403
0.022199
0.0265926
0.0230509
0.0408751
0.0699691
0.0612081
0.0664481
0.0670103
0.069056
0.0722606
0.077817
0.0787266
0.0822919
0.0765166
0.0693861
0.0600088
0.0558456
0.0482309
0.329621
0.12997
0.0693907
0.0342499
0.0396918
0.0375518
0.0326976
0.0333043
0.0343419
0.0436389
0.0373871
0.0461822
0.0398863
0.040769
0.0418082
0.0434802
0.0435367
0.0494866
0.0471637
0.0546915
0.0488037
0.0400207
0.0357109
0.033356
0.0248526
0.334933
0.141994
0.0801155
0.0490822
0.0347991
0.0415436
0.0416165
0.0413263
0.0356804
0.042599
0.0505164
0.053845
0.0382939
0.0374125
0.0382105
0.0416001
0.0412317
0.048075
0.0502877
0.0517305
0.0492161
0.0413388
0.0371055
0.032463
0.0238581
0.334663
0.143766
0.0788866
0.0510339
0.0399234
0.0417111
0.0447265
0.0410697
0.0347321
0.0387867
0.0577847
0.05806
0.0415296
0.0377692
0.0389866
0.044814
0.0461037
0.0470643
0.0480726
0.0527131
0.0548598
0.0467159
0.0356443
0.0370598
0.0202625
0.334277
0.144976
0.0785383
0.0519273
0.0436248
0.0361872
0.0422825
0.0405079
0.0349111
0.0362875
0.0431866
0.0594998
0.0411666
0.039407
0.0464762
0.0488824
0.0502124
0.0529624
0.0513909
0.0527328
0.0562656
0.0497845
0.0373762
0.0380695
0.0219906
0.334005
0.145153
0.0787413
0.0536786
0.0430525
0.0363123
0.039178
0.03841
0.0378306
0.0375025
0.0410902
0.0586396
0.0405289
0.0407108
0.048371
0.049209
0.0488344
0.0480279
0.0505689
0.0548627
0.0533883
0.0554687
0.0426097
0.0498431
0.0888579
0.334166
0.145122
0.0797156
0.0558423
0.042694
0.0399861
0.0399783
0.0365551
0.0370883
0.0375561
0.0425023
0.0522557
0.0428065
0.0444809
0.0432164
0.0493384
0.0489781
0.0518064
0.0584405
0.0580428
0.0551738
0.0543553
0.048302
0.0456322
0.0438294
0.3345
0.143869
0.0816008
0.0571712
0.0414377
0.0404098
0.0429526
0.0368351
0.0379703
0.0391963
0.0403499
0.0472464
0.0460202
0.0447675
0.0478794
0.0506911
0.0560393
0.0569016
0.0583543
0.05963
0.060634
0.057116
0.0533007
0.0463916
0.0398455
0.334207
0.142444
0.0827235
0.0577516
0.0409974
0.0418078
0.0411074
0.0374634
0.0360127
0.0395237
0.0418009
0.0433152
0.0503219
0.0470509
0.0486055
0.0519196
0.0561703
0.0590457
0.0588261
0.0572932
0.0573959
0.0605582
0.0532866
0.0475127
0.0315861
0.333762
0.140313
0.0840977
0.0560849
0.0381875
0.0403963
0.0410512
0.0397134
0.0379147
0.0382979
0.0430391
0.0415979
0.0523087
0.0456098
0.0507152
0.0525653
0.0568993
0.0571794
0.0579676
0.0609085
0.0569501
0.0556065
0.0549948
0.0457576
0.0311683
0.332919
0.13884
0.0854718
0.0529837
0.0372173
0.0401828
0.0431294
0.0430679
0.0415122
0.0380876
0.0428286
0.0421402
0.0518013
0.0481801
0.049827
0.0514594
0.0551352
0.0561826
0.0558165
0.0561778
0.0563834
0.0551111
0.0575578
0.0472911
0.0322658
0.332024
0.138848
0.0861756
0.0500724
0.03825
0.0394003
0.0417803
0.0418926
0.0418394
0.0375643
0.0396699
0.0421737
0.0495081
0.0480558
0.0505253
0.0497771
0.0505741
0.055445
0.0528668
0.0557253
0.0583903
0.0520205
0.0537009
0.0476559
0.0333952
0.330828
0.13956
0.0870032
0.0471269
0.0379763
0.0395742
0.0417044
0.0428013
0.0438077
0.0377914
0.0388405
0.0400039
0.0440185
0.0449001
0.0480616
0.0495284
0.0481831
0.0486041
0.0460291
0.0519639
0.0527548
0.0508054
0.0567712
0.0475313
0.036895
0.329442
0.141685
0.0854903
0.0413781
0.0354329
0.0392217
0.042865
0.0456686
0.0436494
0.0383199
0.0400973
0.0398908
0.0420904
0.0430261
0.0457256
0.0480513
0.044902
0.0409723
0.0385129
0.04753
0.0496513
0.0507381
0.0488647
0.0470516
0.0422023
0.32847
0.143393
0.0812039
0.03784
0.0342444
0.0376975
0.0442929
0.0445367
0.0452459
0.0405929
0.0404176
0.0412182
0.0405876
0.0420158
0.0441824
0.0464105
0.0406676
0.0360354
0.0316033
0.0407369
0.0453945
0.0447166
0.0469158
0.048633
0.0507092
0.328236
0.144795
0.0760226
0.0379096
0.0320134
0.0367959
0.044446
0.0438911
0.0450655
0.0417282
0.0402768
0.0410365
0.0393781
0.040235
0.040205
0.0407118
0.0379542
0.0382918
0.0296638
0.0334659
0.0368169
0.0384373
0.043386
0.0493296
0.052665
0.328892
0.145344
0.0724346
0.0456306
0.0340132
0.0383378
0.0409982
0.0431321
0.0453737
0.0427916
0.0389361
0.0402681
0.040523
0.0399381
0.0432438
0.0418757
0.03582
0.0323253
0.0323261
0.0275357
0.0290012
0.0297504
0.0347887
0.0438706
0.0432612
0.329654
0.143547
0.0746089
0.0486978
0.0387888
0.0392332
0.0400274
0.0420452
0.0436071
0.0437334
0.0387753
0.0393034
0.0403501
0.0379289
0.0384316
0.0397064
0.040591
0.0347067
0.032291
0.0284695
0.0287912
0.0254828
0.0288286
0.0437626
0.039564
0.330589
0.140821
0.079097
0.050261
0.04022
0.0381449
0.0405984
0.0413907
0.0427104
0.0427065
0.038883
0.0376997
0.0392809
0.0393524
0.0385325
0.0380323
0.0363221
0.0351451
0.0295195
0.0267515
0.0269672
0.028334
0.0268654
0.0408122
0.0376868
0.33008
0.148582
0.0827656
0.0499776
0.0399974
0.0371781
0.0400666
0.0423825
0.0430954
0.0422502
0.0391446
0.0370854
0.038271
0.0383805
0.0390387
0.036817
0.0395235
0.0376803
0.0339425
0.0273368
0.0274721
0.0293138
0.0300605
0.0357989
0.0425075
0.330534
0.159027
0.0801912
0.0447837
0.037914
0.0344509
0.036362
0.0400541
0.0424773
0.0423078
0.0392906
0.0365669
0.0360788
0.0391707
0.0377406
0.0360115
0.0377925
0.0383589
0.0348539
0.0297816
0.0273279
0.0256878
0.0261894
0.0290165
0.0362245
0.33449
0.16049
0.0756893
0.0380782
0.0361703
0.0341132
0.0353168
0.0385037
0.0409502
0.0400911
0.0383146
0.03595
0.0350778
0.0388736
0.0397431
0.036933
0.0388648
0.0382126
0.0358747
0.033338
0.0279545
0.0280637
0.0281349
0.0303298
0.0294275
0.33784
0.137316
0.0644463
0.03612
0.0312688
0.0302874
0.0327821
0.0346829
0.0360954
0.0354936
0.0341284
0.0322314
0.033735
0.0374314
0.0383537
0.038085
0.0373785
0.0362336
0.034438
0.0323249
0.0298727
0.0277145
0.0275067
0.0273589
0.0270942
0.298964
0.0829107
0.0513852
0.0363078
0.0314902
0.0320003
0.0342515
0.0366536
0.0390334
0.0391244
0.0367066
0.0338283
0.0354718
0.0406189
0.0409005
0.0428809
0.0415035
0.0392302
0.037128
0.0349715
0.0322257
0.0309741
0.0302004
0.0293057
0.0273297
0.020984
0.0226354
0.0310833
0.0359894
0.0365986
0.0375297
0.0380153
0.0364236
0.0355536
0.0349246
0.0384481
0.0426553
0.0447931
0.0447722
0.0456192
0.0501979
0.050631
0.0509357
0.0503102
0.0473074
0.0470304
0.0459941
0.0456392
0.0454237
0.0425827
0.021759
0.0199865
0.0182295
0.0154044
0.0118141
0.0162643
0.0196139
0.026315
0.0294255
0.0294541
0.0560081
0.0765661
0.0732671
0.0736857
0.0698707
0.0702004
0.0709065
0.072295
0.0713366
0.0671586
0.0621326
0.0563921
0.0495529
0.0490225
0.0459719
0.335672
0.132251
0.0757964
0.046259
0.0402895
0.0343704
0.0291715
0.029334
0.029977
0.0473913
0.0528932
0.0519867
0.0467084
0.0580446
0.0677345
0.0627647
0.0566806
0.0537245
0.0560415
0.0639926
0.0604824
0.048135
0.0372122
0.0299234
0.0289446
0.339446
0.141333
0.0820117
0.0567299
0.0403702
0.0360444
0.0328967
0.0312569
0.0306049
0.0391646
0.0574282
0.055017
0.0445048
0.048388
0.050692
0.0503981
0.0531874
0.0516527
0.0627123
0.0627211
0.0652831
0.0577176
0.0415878
0.0314436
0.0845039
0.339239
0.140766
0.0809754
0.0565927
0.0419164
0.0380057
0.0318548
0.0319698
0.0299876
0.0356319
0.0496787
0.0576301
0.0460485
0.0464835
0.0478924
0.0517569
0.0521258
0.052067
0.0490611
0.0609303
0.0606485
0.0594918
0.0471387
0.033384
0.144109
0.338958
0.140172
0.0812227
0.0559914
0.0422225
0.0383349
0.0370201
0.0324231
0.0328869
0.0332835
0.0437868
0.0556351
0.0441338
0.0422857
0.0499416
0.0493287
0.0464479
0.0505681
0.046618
0.0512544
0.0535669
0.0552092
0.0512753
0.0399642
0.126988
0.33874
0.138944
0.0812117
0.0564116
0.0418176
0.0369688
0.0345838
0.0331153
0.0368627
0.034278
0.0426816
0.0535171
0.0439931
0.0421906
0.0450056
0.0505588
0.0523079
0.0491151
0.049778
0.0550355
0.054926
0.0528989
0.0525781
0.0492011
0.0680753
0.338445
0.13854
0.081356
0.0572192
0.0425802
0.0350019
0.0357026
0.0336909
0.0364117
0.0376125
0.0406242
0.0554561
0.0484682
0.0456941
0.0471831
0.0495014
0.0498963
0.0516227
0.0527812
0.055778
0.0597165
0.0570567
0.0537167
0.0661576
0.0619987
0.338462
0.138412
0.0814921
0.0587922
0.0433507
0.0376969
0.0328699
0.0326175
0.0368278
0.0383266
0.0398175
0.0533611
0.0491456
0.0455573
0.0479866
0.0508243
0.0532389
0.05728
0.0602732
0.0618877
0.0607073
0.0623873
0.0567849
0.0615409
0.134436
0.338637
0.13923
0.081867
0.0588725
0.0457655
0.0372492
0.0334413
0.032264
0.0350091
0.0391916
0.0416491
0.0515803
0.0507437
0.0479608
0.0502124
0.0486692
0.0555158
0.0598233
0.0613072
0.063983
0.0649019
0.0651912
0.0605082
0.0567286
0.0700095
0.339028
0.140365
0.083327
0.0587453
0.0502978
0.0424195
0.038254
0.03575
0.0364463
0.0385171
0.0427799
0.048439
0.0535647
0.0495718
0.052871
0.0517775
0.0559493
0.0582385
0.0582528
0.0606803
0.0634598
0.0653772
0.0636431
0.0608945
0.0833108
0.339383
0.142051
0.0843425
0.0600793
0.0521682
0.0492705
0.0453478
0.0408311
0.0384884
0.0381245
0.0408885
0.0466824
0.0539134
0.0510779
0.0501659
0.0511247
0.0536361
0.0592256
0.0594164
0.0597329
0.059541
0.0630669
0.060473
0.0608756
0.062052
0.339797
0.144013
0.0854368
0.0618501
0.0526102
0.0502819
0.0472769
0.0450509
0.0404351
0.0383647
0.040288
0.0471997
0.0535614
0.049466
0.0512749
0.049461
0.0513497
0.0559389
0.05871
0.0567174
0.0560041
0.055166
0.0589237
0.0626667
0.069328
0.339878
0.14482
0.0864578
0.0639225
0.053581
0.0519397
0.0482326
0.0472987
0.0421788
0.0404146
0.0410022
0.0452277
0.0507054
0.0488798
0.0510891
0.0485528
0.0462648
0.0440592
0.0492489
0.0517929
0.0543836
0.0512664
0.059872
0.070619
0.0765177
0.34012
0.145465
0.0879873
0.066185
0.0536405
0.0521308
0.0487013
0.0475881
0.0435297
0.0405668
0.0409322
0.043023
0.0494864
0.0493443
0.0469434
0.0458079
0.0410257
0.0347154
0.0388277
0.0479029
0.046441
0.0483707
0.0538569
0.0610818
0.0855844
0.340077
0.144988
0.0890501
0.0665557
0.0527112
0.0484388
0.0467423
0.0459882
0.0436948
0.0416366
0.040562
0.0413439
0.0461967
0.046283
0.0497999
0.0480898
0.0368546
0.0305011
0.0339282
0.0431161
0.0434788
0.0448174
0.0459009
0.0549554
0.0870642
0.340103
0.145373
0.0889341
0.0667775
0.0534809
0.0477787
0.0457527
0.0457296
0.0442422
0.0411496
0.0403337
0.0403626
0.0433418
0.0457373
0.0450831
0.045987
0.0364589
0.0305673
0.0296709
0.0354718
0.0413327
0.0416418
0.0450178
0.04939
0.0769913
0.340395
0.146918
0.0873946
0.0714164
0.0608305
0.0520562
0.0471767
0.0457754
0.0450732
0.0415919
0.038988
0.037233
0.039408
0.0451013
0.0471594
0.0494102
0.0396319
0.0315775
0.0289198
0.031062
0.0347553
0.0392013
0.0406173
0.0477218
0.0511728
0.340986
0.145503
0.0942929
0.0827425
0.0708087
0.059478
0.0518324
0.0491434
0.0458653
0.0437073
0.0400288
0.037002
0.0377272
0.0430309
0.0490726
0.0451698
0.0448167
0.0375227
0.0331894
0.0330111
0.0312097
0.0320295
0.040313
0.0455699
0.0466733
0.340699
0.140726
0.110408
0.0891413
0.0726124
0.0618212
0.0543016
0.0488598
0.0474301
0.0451006
0.0416668
0.037188
0.0359934
0.0400101
0.0481221
0.0462205
0.0455517
0.0420771
0.0404727
0.0358119
0.0310082
0.029604
0.0355047
0.0469951
0.0453238
0.339683
0.150115
0.117992
0.0808244
0.0661634
0.0606442
0.0546709
0.0490242
0.0460165
0.0438609
0.0425019
0.0385326
0.0352886
0.0381862
0.0436445
0.0455253
0.0463008
0.0442046
0.0424795
0.0391924
0.032128
0.0301449
0.0319827
0.0464949
0.0443459
0.340302
0.166825
0.104379
0.0705771
0.0568214
0.0558098
0.0517475
0.0482215
0.0455894
0.043778
0.041571
0.0394731
0.0350053
0.0368015
0.0418194
0.0424829
0.0409907
0.0421895
0.0406101
0.0376174
0.0347072
0.0305571
0.0310411
0.0411589
0.0408878
0.342838
0.162064
0.0936047
0.0607034
0.0508788
0.0505497
0.0485302
0.0455043
0.0437695
0.0422929
0.0405187
0.0396415
0.0355673
0.0353897
0.0393276
0.0400521
0.0395152
0.040445
0.0395477
0.0370038
0.035178
0.0314316
0.0323092
0.0378402
0.0368564
0.341038
0.135025
0.0824335
0.046437
0.0436493
0.0445498
0.0444889
0.0407975
0.038686
0.0378559
0.0385387
0.0383399
0.0354979
0.0363573
0.0389058
0.0404763
0.0401417
0.0401011
0.0390522
0.038051
0.0361632
0.0332381
0.0343287
0.0370734
0.0333953
0.293599
0.0858226
0.0608556
0.0478268
0.0447468
0.0445713
0.0460962
0.0427615
0.0424473
0.043436
0.0426247
0.0393902
0.0377655
0.0397088
0.043067
0.0426629
0.0446894
0.0438035
0.0418715
0.0402307
0.03859
0.0352963
0.0350664
0.0352087
0.0341699
0.0210075
0.0259994
0.0397306
0.0455418
0.0491576
0.0492731
0.0476698
0.0439914
0.0420004
0.0430299
0.0454618
0.0503748
0.0529584
0.0566463
0.0598117
0.0615728
0.0607967
0.0586326
0.0568706
0.0553441
0.0540678
0.0527985
0.0499508
0.0463985
0.0444651
0.021899
0.0196106
0.0180648
0.0151848
0.0133545
0.0183145
0.0211922
0.0289527
0.0325735
0.030075
0.0554526
0.0752674
0.0725719
0.0706369
0.066589
0.0670478
0.0641515
0.063321
0.0630402
0.0630004
0.0640443
0.0598879
0.0604122
0.0589623
0.0498058
0.33429
0.132248
0.0748281
0.0444161
0.0368053
0.0311801
0.0294796
0.0342989
0.0354383
0.0468306
0.0598864
0.0542887
0.0491205
0.0627392
0.0722179
0.067608
0.0649042
0.0671094
0.0796131
0.0799259
0.0736256
0.0601252
0.0653407
0.062495
0.0497749
0.339212
0.140504
0.0833897
0.0575679
0.0445917
0.0373927
0.031669
0.0342005
0.0348924
0.0394993
0.0516864
0.053697
0.0478141
0.0643084
0.0655705
0.0632522
0.0625168
0.0647332
0.0739251
0.0721182
0.0619789
0.0550056
0.053013
0.0611005
0.0541752
0.339068
0.139917
0.0814876
0.0593071
0.0467771
0.0397191
0.0337939
0.0323882
0.0376561
0.0412214
0.0476001
0.0568915
0.0512873
0.0565335
0.0623799
0.0578527
0.0566765
0.0643238
0.0716579
0.0726985
0.0648169
0.0554755
0.053591
0.0526806
0.0538996
0.338613
0.139005
0.0809418
0.0592145
0.046837
0.039361
0.0351628
0.0360622
0.0392897
0.0430841
0.0493692
0.0554045
0.0483548
0.055992
0.0565114
0.0549659
0.0576658
0.0621542
0.0660718
0.0678208
0.0672451
0.0610243
0.0564345
0.0503226
0.0530813
0.338545
0.138536
0.0811132
0.0586448
0.0469515
0.0386102
0.0349765
0.038087
0.0401494
0.0449957
0.0488927
0.0571525
0.0464409
0.0511303
0.0535115
0.0566716
0.0577453
0.0622152
0.063471
0.0642188
0.0657218
0.0623242
0.0616831
0.0532805
0.055273
0.338826
0.13972
0.0818075
0.0596436
0.0477772
0.0385722
0.0354493
0.0380277
0.0429232
0.0459676
0.0497865
0.0562921
0.0527327
0.0489601
0.0510443
0.0509398
0.0552759
0.059673
0.0644904
0.0644636
0.0632926
0.0637846
0.0601704
0.0553266
0.0480484
0.339466
0.14155
0.082328
0.0598248
0.049764
0.0393948
0.0345247
0.0372862
0.0430909
0.042546
0.0483869
0.0565178
0.0536524
0.0529919
0.0518836
0.0521464
0.0558869
0.0576608
0.0597684
0.0633311
0.0618652
0.0615241
0.0590599
0.0576548
0.0575195
0.339745
0.142726
0.0821418
0.0586376
0.0517297
0.0423383
0.0352256
0.038958
0.0426729
0.0427583
0.0471924
0.0549663
0.0555819
0.0541259
0.0512674
0.0492003
0.0564134
0.0593614
0.0590144
0.0630453
0.0636951
0.0626305
0.0599758
0.0681486
0.16182
0.339819
0.142695
0.0821696
0.0582315
0.0496943
0.0452695
0.037407
0.041115
0.0439744
0.0437615
0.0456307
0.0523896
0.0552688
0.0558906
0.0510717
0.0486379
0.0566169
0.055959
0.0582028
0.0653759
0.0689325
0.0695219
0.0764026
0.110168
0.276678
0.339355
0.141656
0.0817638
0.0582679
0.0495411
0.045308
0.0400003
0.0408629
0.0427469
0.0453268
0.0445313
0.0491135
0.0546398
0.0541525
0.0511005
0.0485616
0.0542509
0.0580097
0.0622156
0.0642065
0.0683244
0.0749537
0.0783163
0.0792348
0.170649
0.338737
0.139143
0.0813551
0.0567826
0.0489488
0.0426075
0.0394031
0.0399436
0.0431754
0.0441273
0.0439312
0.0468163
0.0534542
0.0500451
0.0515198
0.0505352
0.0505984
0.0561703
0.0563912
0.0577918
0.0614263
0.0650683
0.0595004
0.0694933
0.212957
0.33809
0.136922
0.0807745
0.0579468
0.0506147
0.0475476
0.0418104
0.0428871
0.0446669
0.0447737
0.0447906
0.0455706
0.0510625
0.0487762
0.0514432
0.0466937
0.0453271
0.0442681
0.0467799
0.0475445
0.0520814
0.0512338
0.056043
0.098797
0.264179
0.337694
0.135567
0.0801238
0.0604897
0.0525451
0.0503392
0.0469096
0.0456543
0.0441905
0.0448991
0.0442057
0.0425497
0.0471843
0.0503447
0.0536741
0.0472285
0.0409757
0.0355825
0.0397665
0.0400329
0.0434908
0.0449914
0.0426118
0.0773483
0.254202
0.337649
0.135934
0.0813978
0.0635736
0.0554508
0.0522748
0.049531
0.0477422
0.0449308
0.0451918
0.0440967
0.0419542
0.0446401
0.0494387
0.0492361
0.0497019
0.0429002
0.0359368
0.03662
0.0387396
0.0413788
0.0408526
0.0378078
0.061197
0.261944
0.338064
0.138026
0.083907
0.0668357
0.0585106
0.0535733
0.0502464
0.0492993
0.0470772
0.0441443
0.0427635
0.0415803
0.0420443
0.0472136
0.0476748
0.0508225
0.0460463
0.0379422
0.0368317
0.0381432
0.0383824
0.0400019
0.0381857
0.0480852
0.21825
0.33845
0.138936
0.0849767
0.0707032
0.064865
0.0581973
0.0521808
0.0495272
0.0484933
0.045359
0.0421195
0.0405555
0.040217
0.0429818
0.0498551
0.0473303
0.0489333
0.0406766
0.0389923
0.0387013
0.0378406
0.0392563
0.0385431
0.0455092
0.0692289
0.339062
0.13846
0.0939867
0.0859254
0.0754576
0.0706471
0.0604117
0.052758
0.0495923
0.0467933
0.0428318
0.0396139
0.0384486
0.0399257
0.0493307
0.05045
0.04524
0.0459647
0.0438737
0.0402793
0.0399383
0.0410068
0.0423494
0.0437452
0.0521731
0.339777
0.142531
0.116805
0.111459
0.0971216
0.0794376
0.0674643
0.0585588
0.0538987
0.0504981
0.0452149
0.0406019
0.0368732
0.038217
0.045299
0.0498669
0.0447337
0.0468457
0.0421956
0.0429502
0.0385523
0.0386483
0.0419113
0.0478015
0.042976
0.339958
0.162833
0.126405
0.103544
0.0890898
0.0767309
0.0708159
0.0666432
0.0586075
0.0524341
0.0468682
0.0419713
0.0372934
0.0354774
0.0421067
0.0489376
0.046785
0.0473195
0.0451292
0.0452494
0.0394524
0.0358907
0.039015
0.0483632
0.0429637
0.343596
0.168682
0.112491
0.0826586
0.0773089
0.0733809
0.0686581
0.0668119
0.0595543
0.052213
0.0474085
0.042821
0.0377183
0.0360612
0.0389215
0.0460712
0.0453398
0.04488
0.0434123
0.0433021
0.0400088
0.0347213
0.0370482
0.0415805
0.0409521
0.346136
0.154329
0.0990218
0.0628228
0.0612763
0.0693252
0.0682262
0.0645659
0.0570598
0.0506533
0.0459844
0.0431724
0.0386545
0.0374141
0.0378172
0.0420796
0.0431381
0.0443583
0.0423697
0.0419117
0.038598
0.033817
0.0326424
0.0398561
0.0402531
0.341272
0.1299
0.0842472
0.0498456
0.0539047
0.0597383
0.0575838
0.0510278
0.0453777
0.043434
0.0436518
0.0432594
0.039048
0.0395958
0.0379058
0.0391479
0.0390824
0.0409771
0.0408386
0.0411923
0.0393761
0.0379005
0.0351618
0.0362215
0.036344
0.293306
0.0855653
0.0653258
0.0538845
0.0536234
0.0578536
0.0562246
0.0465254
0.0450408
0.0466879
0.0479245
0.0457145
0.0408548
0.0422871
0.0408776
0.0423247
0.0415834
0.0419283
0.0433789
0.041928
0.041287
0.0404018
0.0383244
0.0400031
0.0372246
0.0209979
0.0296662
0.0494473
0.0549419
0.0572613
0.0539641
0.0503482
0.048372
0.04732
0.049465
0.0510401
0.0545964
0.058001
0.0594233
0.0621709
0.0640004
0.0638986
0.062326
0.0602198
0.057499
0.0539133
0.050795
0.0470503
0.0440866
0.0428607
0.0216695
0.0194931
0.017843
0.0146569
0.0138167
0.0206132
0.0228235
0.0328437
0.0359079
0.0357081
0.0428237
0.0634374
0.0674112
0.0689803
0.0661471
0.0595156
0.0608915
0.0771055
0.0910806
0.0935907
0.0846579
0.0844302
0.083833
0.0823305
0.069947
0.332411
0.136471
0.0715687
0.0456178
0.0342896
0.031028
0.0349969
0.0386888
0.0382338
0.0434173
0.0625428
0.058125
0.0521816
0.0584523
0.0703466
0.0677765
0.0683211
0.0683092
0.0720893
0.066489
0.0622402
0.0599257
0.0690028
0.0832321
0.0946439
0.339174
0.141625
0.0857571
0.0586873
0.0448202
0.0352036
0.0349939
0.0377704
0.0385171
0.0383926
0.0565345
0.0542814
0.0472854
0.0588607
0.0679274
0.0654098
0.0590357
0.0562429
0.0638329
0.0530396
0.05206
0.054146
0.053103
0.0696196
0.095869
0.339049
0.139998
0.0845143
0.0615321
0.0468673
0.0401893
0.03789
0.0391748
0.0438716
0.0393629
0.0480484
0.053394
0.0487307
0.0607542
0.0633783
0.0572237
0.0598086
0.0577838
0.0634441
0.0585986
0.0524239
0.0541184
0.0673914
0.0626738
0.0898644
0.338885
0.140602
0.083816
0.0621595
0.0477395
0.0413026
0.0401609
0.0414313
0.0451346
0.0445775
0.0496765
0.0510508
0.0454881
0.0618029
0.0604747
0.0553132
0.0586003
0.0570581
0.0591679
0.0625811
0.0523719
0.0508874
0.0648682
0.0609766
0.117367
0.339551
0.142061
0.0841182
0.0616896
0.0486305
0.0428245
0.041823
0.0428175
0.0456384
0.0481997
0.053267
0.0511794
0.0448258
0.0538351
0.0575546
0.0567256
0.0520898
0.0586281
0.0608456
0.0634678
0.0560929
0.0533968
0.0735094
0.0724076
0.190479
0.340513
0.145537
0.0843765
0.0616746
0.049835
0.0438067
0.0435287
0.044884
0.0469927
0.0484919
0.0531982
0.0535563
0.0499485
0.0543394
0.0548671
0.0515492
0.054483
0.0620948
0.0630278
0.0655046
0.0553922
0.0539502
0.0697542
0.0867491
0.230889
0.341118
0.147845
0.0846581
0.0617238
0.0512213
0.0453772
0.0438303
0.0468076
0.0473037
0.0462183
0.0540474
0.0553646
0.0555939
0.057292
0.052687
0.050846
0.0549095
0.0620191
0.0641545
0.0649692
0.0530006
0.05358
0.0670949
0.0847084
0.219464
0.340923
0.148317
0.0855615
0.0612058
0.0533672
0.0448472
0.0439931
0.0465401
0.0481239
0.0459252
0.0497551
0.0544717
0.0549021
0.0594418
0.0521096
0.049015
0.0538519
0.0585942
0.0639652
0.0669604
0.0587478
0.0533157
0.0675447
0.101455
0.270641
0.340899
0.14799
0.0871554
0.0599438
0.0559722
0.0467013
0.0433747
0.0462297
0.0481589
0.0478838
0.0462946
0.0502312
0.0534346
0.0569916
0.0542274
0.0512341
0.0496358
0.0590327
0.0650252
0.0710577
0.0706856
0.0577574
0.0795206
0.114087
0.240017
0.340828
0.14802
0.0884537
0.0614052
0.052682
0.0492544
0.0445499
0.0460742
0.0474058
0.047446
0.0470959
0.0470965
0.0516334
0.0523575
0.0568399
0.04858
0.0497708
0.0528623
0.0574764
0.0622943
0.0712652
0.0826824
0.0927438
0.0923228
0.190492
0.340992
0.14797
0.0890859
0.063437
0.0554386
0.0540421
0.0500308
0.0479162
0.049314
0.0472044
0.046576
0.0455251
0.0501486
0.0491294
0.0560796
0.0481027
0.0473883
0.038396
0.0500602
0.0560797
0.0576018
0.0676245
0.0641225
0.0522053
0.103433
0.340699
0.146913
0.0883128
0.065254
0.0555983
0.0516062
0.0532402
0.0490625
0.0490782
0.0495289
0.0472883
0.0450364
0.0499341
0.0494339
0.0533364
0.0493535
0.0431524
0.037414
0.042126
0.0492474
0.0544201
0.0495472
0.0532255
0.0661595
0.246516
0.340307
0.144377
0.0871962
0.0668242
0.0574519
0.0499433
0.0484395
0.049013
0.0484751
0.0487472
0.0467326
0.0452301
0.0478793
0.0504912
0.0527586
0.0493869
0.045601
0.0387174
0.0396952
0.0401766
0.0445614
0.0487009
0.0498164
0.064025
0.101949
0.339717
0.14254
0.0855365
0.0688854
0.0599528
0.0521431
0.048496
0.0468934
0.0478068
0.0480695
0.0483181
0.0464716
0.0466346
0.05079
0.049623
0.0502912
0.0482752
0.0404757
0.0415286
0.0395706
0.0395729
0.040605
0.0379652
0.0532314
0.0466158
0.339275
0.139604
0.0873571
0.0763849
0.0643404
0.0553154
0.0496357
0.0485816
0.0464619
0.04535
0.0466093
0.0459348
0.0430486
0.0450373
0.0519547
0.0483053
0.0502533
0.0415055
0.0397118
0.0399248
0.0386807
0.0385048
0.0428735
0.0553071
0.0355917
0.338564
0.134627
0.0993007
0.0901073
0.0757658
0.0611002
0.0520292
0.048809
0.0473672
0.0453546
0.0440886
0.0440618
0.0414693
0.0414457
0.0472967
0.0485177
0.0471136
0.0429719
0.0422266
0.0410134
0.0369863
0.0400561
0.0372956
0.0417686
0.0485224
0.338278
0.141936
0.119258
0.109325
0.0979191
0.0764259
0.0607689
0.0529794
0.0498824
0.0469663
0.0437454
0.0422417
0.0407381
0.0389616
0.0426703
0.0444058
0.0455409
0.0446665
0.0417634
0.0389421
0.0367373
0.0361583
0.0378519
0.040552
0.0472271
0.339235
0.162332
0.127658
0.111316
0.103895
0.0898889
0.0732036
0.0614011
0.0545816
0.0514035
0.0457135
0.042046
0.0404681
0.0374342
0.0375923
0.0428657
0.041756
0.0409269
0.0394192
0.0393765
0.0369962
0.0377927
0.0408791
0.0457115
0.0409838
0.342741
0.169648
0.122273
0.0954905
0.0943289
0.0866128
0.0774347
0.0712373
0.0643258
0.0575133
0.0501079