/*--------------------------------*- C++ -*----------------------------------*\
  =========                 |
  \\      /  F ield         | OpenFOAM: The Open Source CFD Toolbox
   \\    /   O peration     | Website:  https://openfoam.org
    \\  /    A nd           | Version:  11
     \\/     M anipulation  |
\*---------------------------------------------------------------------------*/
FoamFile
{
    format      ascii;
    class       volScalarField;
    location    "15";
    object      p;
}
// * * * * * * * * * * * * * * * * * * * * * * * * * * * * * * * * * * * * * //

dimensions      [0 2 -2 0 0 0 0];

internalField   nonuniform List<scalar> 
17196
(
0.0293465
0.124574
-0.0132169
-0.251718
-0.188843
0.251491
1.10208
2.1176
2.70398
2.336
1.49419
1.25288
1.18136
1.00415
0.758648
0.536902
0.561297
0.619553
0.518179
0.629982
0.694809
0.501413
0.580387
0.69755
0.444959
-0.0203865
0.0481468
-0.153171
-0.378321
-0.396429
0.0864248
1.15166
2.42147
3.1835
2.79773
1.65688
0.98657
0.648123
0.417184
0.0922993
-0.138222
-0.025376
0.131295
-0.0160265
0.253895
0.514547
0.426776
0.460667
0.497527
0.290425
-0.0676279
-0.0314204
-0.249445
-0.540192
-0.71709
-0.233014
1.10183
2.68612
3.70473
3.45099
2.45726
1.73005
1.11564
0.608161
0.0234486
-0.349645
-0.264003
-0.129707
-0.303864
-0.168242
0.215758
0.396579
0.414194
0.351887
0.259766
-0.113135
-0.0692375
-0.331238
-0.780954
-1.12738
-0.800403
0.59764
2.43168
3.74713
3.66545
2.93717
2.46182
1.9661
1.27948
0.470413
-0.0628395
-0.111054
-0.0750307
-0.284627
-0.458011
-0.171229
0.14501
0.198517
0.163099
0.213266
-0.157444
-0.0922817
-0.451007
-1.04651
-1.5007
-1.46508
-0.248461
1.68376
3.29765
3.37202
2.6683
2.37914
2.42769
1.7853
0.860123
0.236703
0.071798
0.0221296
-0.158892
-0.433801
-0.327664
0.00579927
0.0852125
-0.0466065
0.0582643
-0.201146
-0.124454
-0.591193
-1.26143
-1.71172
-1.98301
-1.03589
0.807545
2.63515
2.84019
2.03929
1.66953
2.22033
1.93424
1.12775
0.507202
0.269885
0.0956133
-0.121602
-0.353131
-0.331366
0.0113444
0.122055
-0.129853
-0.00344096
-0.24247
-0.159824
-0.732477
-1.43745
-1.7697
-2.28145
-1.55202
0.135249
2.03293
2.29227
1.48622
0.926519
1.47413
1.61925
1.216
0.737698
0.378636
0.0504321
-0.24346
-0.402796
-0.345085
-0.022315
0.123526
-0.0601733
0.0216383
-0.279044
-0.181118
-0.835761
-1.54483
-1.73091
-2.4232
-1.81185
-0.207575
1.55189
1.79876
1.10892
0.539189
0.756701
1.07723
1.16181
0.884742
0.355536
-0.0971048
-0.370225
-0.498031
-0.437409
-0.140784
-0.0128039
-0.0879568
0.0356568
-0.307452
-0.193118
-0.893204
-1.5616
-1.69121
-2.52236
-1.97979
-0.368007
1.1153
1.34456
0.881633
0.514715
0.509641
0.743113
1.06635
0.87941
0.239885
-0.209098
-0.327609
-0.421687
-0.488544
-0.32402
-0.218811
-0.149578
0.040064
-0.325331
-0.20117
-0.941989
-1.51728
-1.68199
-2.66493
-2.19072
-0.575179
0.654863
0.952341
0.803236
0.751014
0.735504
0.779149
0.957334
0.689848
0.106955
-0.147083
-0.128625
-0.116517
-0.275911
-0.441888
-0.437947
-0.178756
0.0188921
-0.333953
-0.193682
-0.979128
-1.49612
-1.68726
-2.83057
-2.44884
-0.870413
0.209722
0.665459
0.877668
1.15603
1.19618
1.03017
0.781863
0.383652
-0.0774572
-0.212748
-0.109526
0.0238635
-0.0494551
-0.419051
-0.602896
-0.317678
-0.119259
-0.334862
-0.181383
-1.00249
-1.50763
-1.72859
-2.98459
-2.72951
-1.24782
-0.203617
0.460995
1.022
1.55258
1.64161
1.23096
0.498504
0.00576023
-0.368399
-0.586996
-0.602628
-0.389331
-0.195193
-0.466022
-0.774897
-0.447334
-0.293247
-0.330149
-0.159556
-0.985315
-1.53008
-1.80736
-3.0874
-3.02634
-1.67703
-0.572914
0.317149
1.16521
1.82681
1.93487
1.22404
0.269969
-0.322828
-0.731431
-1.13015
-1.41133
-1.30343
-0.817528
-0.685834
-0.904791
-0.589969
-0.467863
-0.322185
-0.142008
-0.940898
-1.50409
-1.89591
-3.12476
-3.30832
-2.12538
-0.892612
0.219639
1.25198
1.96299
2.03358
1.11806
0.140503
-0.509809
-1.03634
-1.57913
-2.10078
-2.18034
-1.52873
-0.859476
-0.827828
-0.59119
-0.453462
-0.314755
-0.130216
-0.852392
-1.37704
-1.94587
-3.11401
-3.4443
-2.47178
-1.09742
0.212719
1.33406
2.06608
2.07485
1.07377
0.205172
-0.44589
-1.1003
-1.70441
-2.32142
-2.59509
-1.9937
-0.891907
-0.503688
-0.408769
-0.0739889
-0.307861
-0.134508
-0.828091
-1.2675
-1.91853
-3.00056
-3.34616
-2.55671
-1.10185
0.336664
1.46619
2.1896
2.06014
1.09138
0.38872
-0.202792
-0.916866
-1.5093
-2.09114
-2.50826
-2.19172
-0.940055
-0.2044
-0.434831
0.0234301
-0.297498
-0.133085
-0.860127
-1.29056
-1.84085
-2.66511
-2.89866
-2.23638
-0.834397
0.619548
1.669
2.33955
2.03009
1.12956
0.597542
0.12026
-0.556271
-1.1218
-1.61206
-2.02552
-2.04761
-1.05301
-0.071784
-0.342599
0.0662649
-0.274811
-0.1198
-0.901024
-1.38671
-1.62544
-2.1511
-2.22071
-1.64092
-0.371087
1.00163
1.90946
2.40533
1.98068
1.16638
0.750902
0.386233
-0.221006
-0.762441
-1.18785
-1.49663
-1.6716
-1.10104
-0.0603979
-0.0419769
0.0885088
-0.23129
-0.0761197
-0.90196
-1.33704
-1.11722
-1.44264
-1.41508
-0.84853
0.271035
1.49947
2.19511
2.42507
1.99816
1.33875
0.963221
0.633812
0.0522148
-0.480487
-0.885329
-1.09639
-1.26686
-0.989463
-0.0718679
0.206316
0.147588
-0.15771
-0.0180339
-0.856497
-1.1434
-0.519749
-0.505445
-0.360079
0.234903
1.14949
2.12109
2.53394
2.46063
2.16556
1.72005
1.30417
0.895108
0.289014
-0.272132
-0.688734
-0.879183
-0.994858
-0.819305
-0.0836805
0.29335
0.217229
-0.048722
0.0363576
-0.787966
-0.937986
-0.0519628
0.416177
0.794149
1.41085
2.07442
2.75376
2.89677
2.67789
2.53245
2.27184
1.7733
1.26736
0.623904
-0.0173758
-0.511657
-0.785341
-0.884445
-0.67537
-0.0621612
0.369381
0.272647
0.106955
0.120069
-0.676692
-0.753663
0.192281
0.949901
1.46499
2.06282
2.66242
3.22396
3.30609
2.94173
2.9334
2.84754
2.35863
1.79316
1.11324
0.383935
-0.24266
-0.662632
-0.801164
-0.534499
-0.0106212
0.347357
0.197954
0.32316
0.310553
-0.487561
-0.673284
0.0975982
0.854747
1.4974
2.21989
3.01044
3.62254
3.73469
3.33794
3.30689
3.34172
2.91129
2.30854
1.63363
0.859817
0.117972
-0.43038
-0.576016
-0.287185
0.0689325
0.360975
0.29253
0.5962
0.627785
-0.108585
-0.509949
-0.17856
0.378081
1.13629
2.12162
3.23879
4.08472
4.3033
3.90914
3.76113
3.71005
3.2106
2.53515
1.87954
1.13173
0.362053
-0.216477
-0.351782
-0.0799912
0.111873
0.381006
0.39744
0.801242
0.795578
0.23096
-0.353868
-0.492779
-0.145494
0.66632
1.84963
3.26749
4.42274
4.84963
4.53613
4.17872
3.93226
3.27248
2.46959
1.77168
1.07167
0.314763
-0.297408
-0.513583
-0.274976
-0.0435683
0.347689
0.514799
-0.0945522
-0.160969
-0.540499
-0.873349
-0.673492
-0.0381617
0.508403
0.884659
1.08094
0.812649
0.832234
1.00721
0.37755
-0.156399
-0.644252
-0.882806
-0.734514
-0.36079
0.0194764
0.254568
0.229729
-0.0105733
0.0677474
0.470874
0.352123
-0.141831
-0.245366
-0.740175
-1.14196
-0.953768
-0.234302
0.393708
0.872273
1.1456
0.781533
0.375571
0.226255
-0.459922
-0.836841
-1.32687
-1.68307
-1.53149
-1.24346
-0.885955
-0.314654
-0.00657609
-0.0597714
0.0288478
0.282932
0.174147
-0.179378
-0.263222
-0.848433
-1.37326
-1.35911
-0.816343
-0.0631586
0.708345
1.2146
1.07175
0.701937
0.422437
-0.10469
-0.476933
-1.12696
-1.55397
-1.43352
-1.38206
-1.29986
-0.73075
-0.168776
-0.0195636
0.141358
0.30201
0.181454
-0.218374
-0.284679
-0.931108
-1.51385
-1.73974
-1.4398
-0.616604
0.365198
1.05764
1.21911
1.06935
0.937295
0.683667
0.0860101
-0.775833
-1.34907
-1.3953
-1.42998
-1.50797
-1.19118
-0.631018
-0.244457
-0.0509067
0.0397203
0.0657668
-0.262517
-0.329223
-1.00949
-1.57455
-1.89598
-1.6926
-0.894992
0.0509241
0.753814
1.21771
1.32109
1.24787
1.29836
0.606801
-0.494653
-1.2846
-1.475
-1.45256
-1.61917
-1.5852
-1.11401
-0.476852
-0.201908
-0.231404
-0.03457
-0.310071
-0.377912
-1.13414
-1.61302
-1.85708
-1.74369
-1.0981
-0.299386
0.440864
1.14174
1.55714
1.42742
1.56289
0.973867
-0.241857
-1.22485
-1.44369
-1.33971
-1.60685
-1.82669
-1.58738
-0.828641
-0.332416
-0.288228
-0.0447019
-0.358264
-0.425274
-1.28818
-1.68451
-1.76616
-1.79708
-1.40157
-0.6817
0.242369
1.09547
1.73886
1.59104
1.49115
1.13145
-0.0280471
-1.09909
-1.28364
-1.09141
-1.41707
-1.8932
-1.92631
-1.16965
-0.455266
-0.218651
0.0116649
-0.40494
-0.46121
-1.42186
-1.81251
-1.73886
-1.88866
-1.69551
-0.969669
0.166852
1.10325
1.77588
1.71203
1.22856
1.02876
0.133355
-0.77142
-1.00673
-0.777441
-0.963261
-1.58668
-1.96116
-1.31729
-0.536776
-0.155766
0.0329021
-0.447326
-0.487925
-1.5371
-1.9751
-1.88686
-2.07985
-1.94557
-1.1618
0.122926
1.04928
1.60483
1.64062
0.990714
0.776148
0.378263
-0.344612
-0.831806
-0.747521
-0.629528
-0.923829
-1.51441
-1.27193
-0.596348
-0.095844
0.0533746
-0.483636
-0.50311
-1.66493
-2.1328
-2.16974
-2.39663
-2.21388
-1.32778
-0.00946126
0.845475
1.3118
1.43011
0.895494
0.544772
0.538224
-0.221935
-1.06426
-1.32547
-1.11083
-0.759746
-0.823649
-0.939548
-0.63228
-0.059139
0.0848704
-0.515276
-0.533485
-1.76707
-2.24695
-2.49523
-2.83014
-2.53403
-1.51702
-0.230832
0.609436
1.1068
1.32514
0.957019
0.500689
0.386926
-0.493123
-1.64234
-2.42045
-2.55625
-1.77893
-0.958528
-0.850746
-0.592134
-0.0281557
0.0885655
-0.542555
-0.581304
-1.80942
-2.29188
-2.79416
-3.29926
-2.85933
-1.70215
-0.459052
0.435955
1.04932
1.40088
1.16198
0.560109
0.177898
-0.81887
-2.20792
-3.50996
-4.25929
-3.58055
-2.09474
-1.41133
-0.810677
-0.0739773
0.0635881
-0.563027
-0.633142
-1.8041
-2.25547
-2.99914
-3.69102
-3.12783
-1.85147
-0.628179
0.302403
1.04708
1.53326
1.39683
0.646357
0.0589587
-0.972185
-2.43863
-3.9313
-5.14714
-4.96701
-3.39107
-2.14042
-1.15558
-0.273992
0.0426862
-0.573801
-0.657317
-1.75381
-2.11436
-3.01111
-3.87812
-3.33781
-2.00485
-0.783781
0.119282
0.965349
1.57467
1.55836
0.710035
0.0463261
-0.896644
-2.27846
-3.62665
-4.89822
-5.28434
-4.04834
-2.47416
-1.28463
-0.431999
0.0355762
-0.57413
-0.633964
-1.69092
-1.88134
-2.82297
-3.85253
-3.52708
-2.23858
-1.08761
-0.19123
0.768898
1.50307
1.6448
0.800237
0.109165
-0.719478
-1.90209
-2.92302
-3.86614
-4.52081
-3.819
-2.35625
-1.10249
-0.434525
0.0968927
-0.566899
-0.608052
-1.6383
-1.7069
-2.58653
-3.74359
-3.65186
-2.61907
-1.58676
-0.583445
0.511192
1.34239
1.60093
0.885457
0.156362
-0.641311
-1.62962
-2.33949
-2.80066
-3.28578
-3.00258
-2.03529
-0.892154
-0.340369
0.0905232
-0.552532
-0.594664
-1.66996
-1.85056
-2.49955
-3.55637
-3.62528
-3.01633
-2.0696
-0.897149
0.292989
1.1695
1.46887
0.897545
0.158398
-0.602044
-1.4372
-2.00137
-2.15408
-2.27728
-2.10952
-1.64125
-0.824854
-0.148289
0.297986
-0.525592
-0.57514
-1.83586
-2.39763
-2.68626
-3.12737
-3.40233
-3.20786
-2.25816
-0.947366
0.225693
1.05852
1.29695
0.82045
0.115714
-0.53271
-1.21546
-1.73738
-1.8521
-1.74929
-1.54553
-1.35662
-0.865165
-0.0533518
0.526461
-0.481603
-0.52502
-2.09121
-3.05822
-3.01203
-2.79144
-3.13996
-2.9901
-1.90005
-0.539606
0.476142
1.17349
1.27182
0.85668
0.202617
-0.31491
-0.896662
-1.42915
-1.67589
-1.57732
-1.34355
-1.20105
-0.838571
0.0132439
0.615426
-0.412034
-0.450625
-2.40353
-3.63094
-3.22148
-2.53786
-2.56492
-2.07322
-0.906047
0.269591
1.01361
1.47709
1.49441
1.15035
0.554446
0.073953
-0.501637
-1.07312
-1.48113
-1.51085
-1.29971
-1.09055
-0.689843
0.16184
0.722058
-0.292073
-0.346956
-2.6757
-3.9248
-2.97835
-1.73294
-1.21566
-0.46373
0.463741
1.18801
1.50379
1.78937
1.9389
1.65533
1.07606
0.551242
-0.0513678
-0.660539
-1.18399
-1.34386
-1.22749
-0.979935
-0.44737
0.40982
0.831295
-0.0928762
-0.16204
-2.59991
-3.6049
-2.22407
-0.603475
0.224374
0.987007
1.64433
1.91962
1.91783
2.17622
2.50567
2.30138
1.63211
1.00974
0.382506
-0.279173
-0.890465
-1.11868
-1.06177
-0.817627
-0.11513
0.733601
0.884316
0.193364
0.174824
-2.0771
-2.86509
-1.32382
0.213999
1.03284
1.82138
2.50496
2.64098
2.55631
2.78906
3.09214
2.94606
2.20345
1.4655
0.795728
0.0795585
-0.601109
-0.857512
-0.759437
-0.528897
0.183384
0.946514
0.824229
0.556955
0.560745
-1.24354
-2.06759
-0.86667
0.275891
1.12883
2.16679
3.10528
3.53502
3.5878
3.59161
3.55239
3.35502
2.64324
1.89069
1.2151
0.481722
-0.204969
-0.497704
-0.361205
-0.198456
0.212292
0.855619
0.704009
0.833858
0.74975
-0.549216
-1.5267
-0.961322
-0.215231
0.711106
2.00647
3.22074
4.08749
4.50165
4.38039
3.92622
3.49728
2.80241
2.10458
1.44749
0.715716
0.0439333
-0.377931
-0.375217
-0.248799
-0.0699181
0.448016
0.665179
-0.10342
-0.219227
-0.601694
-0.63034
-0.127302
0.429245
0.780408
1.01059
1.07853
0.975427
1.48204
1.23141
-0.0366477
-0.839362
-1.39876
-1.37849
-0.782483
-0.115079
-0.121615
-0.0308891
0.212122
0.178394
0.220613
1.37778
1.17325
-0.142539
-0.238051
-0.798638
-0.893471
-0.369339
0.182362
0.537887
0.86322
0.979391
0.650232
0.640595
0.125663
-0.891551
-1.46663
-2.11119
-2.23816
-1.53669
-0.78637
-0.565828
-0.411051
-0.14036
-0.0184268
0.0986264
1.15567
0.918362
-0.175483
-0.227087
-0.875897
-1.12087
-0.732769
-0.20557
0.182284
0.481981
0.566347
0.265893
0.191396
-0.240471
-0.92089
-1.31896
-2.07877
-2.40014
-1.90876
-1.36137
-0.938349
-0.621556
-0.379967
-0.165244
0.156757
1.08122
0.628086
-0.210111
-0.21703
-0.872347
-1.21213
-0.878949
-0.329714
0.101593
0.435587
0.525974
0.240605
0.136388
-0.040163
-0.463534
-1.08311
-2.13488
-2.67713
-2.26617
-1.76433
-1.40531
-1.14382
-0.931597
-0.561084
-0.0309822
0.671753
0.262233
-0.2497
-0.215666
-0.890953
-1.1853
-0.786483
-0.210014
0.223845
0.575677
0.693329
0.471884
0.440761
0.295538
-0.0270347
-0.838596
-2.1943
-3.00231
-2.5754
-1.86434
-1.69317
-1.83199
-1.73353
-1.02282
-0.295641
0.252578
0.155005
-0.294546
-0.208953
-1.01931
-1.18816
-0.703192
-0.169087
0.157739
0.469665
0.64274
0.627085
0.791789
0.628416
0.229255
-0.627046
-2.08998
-3.01514
-2.56493
-1.67554
-1.66944
-2.43661
-2.83738
-1.77995
-0.678341
-0.0471034
0.126785
-0.345696
-0.225643
-1.24677
-1.2246
-0.646197
-0.260384
-0.12514
0.179058
0.450438
0.723689
1.10553
1.01324
0.445268
-0.380114
-1.74694
-2.79982
-2.35069
-1.42001
-1.42099
-2.74376
-3.87223
-2.61724
-1.10662
-0.243248
0.0732376
-0.4029
-0.275574
-1.45623
-1.27861
-0.606252
-0.39423
-0.462089
-0.186565
0.268848
0.734927
1.16891
1.22008
0.567591
-0.145707
-1.32516
-2.61506
-2.38241
-1.60618
-1.53228
-2.68805
-4.24933
-3.16758
-1.44068
-0.345171
0.0322672
-0.462572
-0.364192
-1.57328
-1.341
-0.624992
-0.541926
-0.737133
-0.514419
0.0723186
0.537762
0.854753
0.962137
0.544667
-0.0476454
-1.10576
-2.52456
-2.7362
-2.38767
-2.32456
-2.648
-4.0715
-3.37131
-1.6292
-0.467427
0.00735566
-0.520624
-0.467704
-1.66403
-1.4183
-0.743447
-0.774296
-1.0419
-0.852706
-0.226093
0.120245
0.346024
0.392594
0.29136
-0.0852443
-0.994159
-2.55653
-3.32465
-3.6222
-3.79521
-3.26416
-3.93057
-3.60529
-1.92452
-0.705896
-0.0969388
-0.574065
-0.571385
-1.75439
-1.50042
-0.981412
-1.15388
-1.45521
-1.25483
-0.617232
-0.345604
-0.11389
-0.0385384
0.0960032
-0.0479895
-0.673799
-2.3479
-3.65734
-4.52402
-5.28947
-4.51338
-4.09764
-3.88394
-2.31599
-0.969915
-0.151375
-0.621325
-0.678289
-1.84088
-1.61992
-1.33606
-1.69561
-1.98689
-1.69745
-1.04808
-0.73144
-0.386552
-0.149168
0.121986
0.0740969
-0.268009
-1.94192
-3.55198
-4.62223
-5.85971
-5.48641
-4.23817
-3.70207
-2.29475
-1.09683
-0.134295
-0.657887
-0.723369
-1.88092
-1.84659
-1.8234
-2.31491
-2.51969
-2.08072
-1.38943
-0.914492
-0.374064
0.0513083
0.331443
0.258076
-0.0413151
-1.5807
-3.14468
-4.1587
-5.40646
-5.39367
-3.95393
-2.99568
-1.86716
-1.1015
-0.0993252
-0.686425
-0.785823
-1.90675
-2.06717
-2.34788
-2.87899
-2.86852
-2.26803
-1.44557
-0.795145
-0.150037
0.397263
0.650624
0.525842
0.15374
-1.20778
-2.61916
-3.37605
-4.38331
-4.65051
-3.17591
-2.00065
-1.32534
-0.870983
-0.0308258
-0.705633
-0.830997
-1.9536
-2.10878
-2.62005
-3.21817
-3.00103
-2.29738
-1.36689
-0.561516
0.074818
0.67968
0.988143
0.84399
0.253776
-1.07813
-2.39285
-2.78792
-3.22442
-3.55966
-2.28078
-1.09886
-0.821716
-0.576389
0.0710807
-0.71588
-0.832181
-2.06971
-2.13481
-2.56906
-3.24444
-3.06394
-2.48565
-1.49839
-0.467033
0.151803
0.751309
1.14769
1.02438
0.204625
-1.21902
-2.51878
-2.65421
-2.51565
-2.48597
-1.43852
-0.446289
-0.434983
-0.321704
0.147427
-0.716089
-0.848477
-2.23953
-2.37725
-2.66929
-3.22665
-3.23441
-2.89759
-1.87646
-0.581899
0.109033
0.661128
1.08477
0.968971
0.0145857
-1.40751
-2.57441
-2.70783
-2.34026
-1.89264
-0.854028
-0.0282692
-0.310925
-0.184269
0.200042
-0.699443
-0.838635
-2.5034
-3.02586
-3.28014
-3.46474
-3.48566
-3.28189
-2.2399
-0.722393
0.0943175
0.504337
0.766711
0.571244
-0.344137
-1.52644
-2.32594
-2.47056
-2.17245
-1.62888
-0.696306
0.010148
-0.402263
-0.136494
0.288437
-0.665122
-0.798074
-2.94279
-4.15372
-4.33502
-3.79075
-3.50822
-3.20394
-2.19966
-0.594853
0.361551
0.558063
0.480029
0.178443
-0.51367
-1.33663
-1.82592
-1.95667
-1.83695
-1.49828
-0.852864
-0.198985
-0.446756
-0.0487093
0.414614
-0.609499
-0.766416
-3.58809
-5.66937
-5.53192
-3.91214
-3.01415
-2.4799
-1.59791
-0.0601041
0.980071
1.02786
0.625877
0.249699
-0.237097
-0.786652
-1.2437
-1.49299
-1.55312
-1.41504
-1.04818
-0.42869
-0.363661
0.0642884
0.499077
-0.485795
-0.715347
-4.23001
-6.90896
-6.15534
-3.45152
-2.04138
-1.39364
-0.616815
0.657003
1.63129
1.7037
1.17474
0.748405
0.343142
-0.137303
-0.684579
-1.11675
-1.32922
-1.2567
-1.02636
-0.565392
-0.23613
0.213688
0.526675
-0.242492
-0.463612
-4.30254
-6.95623
-5.60703
-2.50294
-1.0231
-0.179598
0.526665
1.27068
2.00744
2.27328
1.83659
1.34033
0.907788
0.422159
-0.144446
-0.699602
-1.01505
-0.955719
-0.767091
-0.553258
-0.0705113
0.493774
0.621851
0.115125
0.0590696
-3.60798
-5.97169
-4.2774
-1.56391
-0.212494
0.775876
1.42147
1.69472
2.19587
2.67804
2.43967
1.9265
1.3834
0.839653
0.287242
-0.286503
-0.660378
-0.607431
-0.413446
-0.335581
0.247663
1.01172
0.822973
0.54656
0.565336
-2.48246
-4.57415
-3.01404
-1.14999
-0.0282183
1.06738
1.82838
2.13983
2.4604
2.94595
2.84113
2.39085
1.83421
1.20651
0.616667
0.0453672
-0.355523
-0.330743
-0.159718
-0.0564915
0.509492
1.359
1.0084
0.858365
0.735454
-1.5892
-3.43008
-2.49878
-1.47686
-0.612782
0.634633
1.7192
2.42857
2.8224
3.10954
2.9633
2.57676
2.0492
1.42983
0.836382
0.28955
-0.102254
-0.168325
-0.109832
0.0090782
0.403816
0.999489
0.850485
-0.0427927
-0.10045
-0.520324
-0.597018
-0.329835
0.00463993
0.453279
0.756415
0.655555
0.465866
1.00202
0.596337
-0.543821
-1.44199
-1.90364
-1.6222
-0.794159
-0.00954744
-0.274189
-0.428606
-0.138133
-0.0719294
-0.0917039
0.339388
-0.247256
-0.087151
-0.129417
-0.726445
-0.829083
-0.507646
-0.199806
0.213566
0.431653
0.290127
-0.0654036
-0.00297271
-0.709024
-1.88477
-2.61676
-3.12753
-2.85971
-1.67597
-0.37661
-0.481248
-0.757599
-0.540768
-0.385154
-0.363605
0.345984
-0.437845
-0.125446
-0.143262
-0.885408
-1.05563
-0.634719
-0.289639
0.0426944
0.106251
-0.134384
-0.669823
-0.700748
-1.38587
-2.43997
-2.99641
-3.64726
-3.42099
-2.2181
-0.994416
-1.01474
-1.27759
-1.04473
-0.661888
-0.45859
0.338351
-0.793077
-0.165331
-0.136257
-0.981445
-1.12918
-0.627377
-0.282554
-0.142962
0.0046623
-0.151449
-0.742999
-0.966204
-1.5494
-2.38048
-2.90435
-3.85335
-3.77179
-2.49121
-1.42786
-1.77666
-2.22178
-1.96849
-1.23468
-0.679425
0.229669
-0.293668
-0.211435
-0.117238
-1.11111
-1.11081
-0.564928
-0.210666
-0.206541
0.116867
0.205841
-0.469166
-0.950053
-1.38905
-2.07018
-2.71706
-3.82826
-3.95533
-2.4604
-1.36043
-2.2205
-3.21169
-3.02753
-1.84599
-0.981225
-0.153306
0.131285
-0.270194
-0.162166
-1.26975
-1.07715
-0.551889
-0.185607
-0.310402
0.0909219
0.406387
-0.223443
-0.864001
-1.22853
-1.81268
-2.58903
-3.57649
-3.84261
-2.31926
-1.17559
-2.23382
-3.87278
-4.04374
-2.48148
-1.29154
-0.582474
0.14764
-0.342664
-0.31125
-1.38311
-1.05774
-0.595697
-0.282331
-0.450679
-0.0810737
0.404715
0.0273127
-0.55432
-0.922207
-1.58102
-2.45765
-3.32841
-3.79724
-2.47832
-1.42769
-2.24791
-4.21208
-4.87461
-3.13984
-1.5755
-0.860046
0.00934638
-0.421023
-0.486231
-1.40755
-1.10213
-0.621908
-0.427539
-0.619199
-0.351074
0.185632
0.135599
-0.217009
-0.603963
-1.38542
-2.2807
-3.16107
-4.08071
-3.02572
-2.22536
-2.70934
-4.34568
-5.1928
-3.68854
-1.88976
-1.0734
-0.118934
-0.492154
-0.602564
-1.37405
-1.16162
-0.579836
-0.509558
-0.762087
-0.620106
-0.181895
-0.0187403
-0.136425
-0.465884
-1.16167
-1.98559
-3.0516
-4.55085
-3.92381
-3.2878
-3.54035
-4.51962
-5.15002
-3.88508
-2.15012
-1.14844
-0.172044
-0.552096
-0.643983
-1.38064
-1.1148
-0.532627
-0.57487
-0.898193
-0.847265
-0.502457
-0.280203
-0.270581
-0.524278
-0.997889
-1.55037
-2.75913
-4.78286
-4.74572
-4.29345
-4.58302
-4.87267
-4.98624
-3.7707
-2.11476
-1.11131
-0.217818
-0.599161
-0.61493
-1.42203
-1.0355
-0.533415
-0.749201
-1.1022
-1.076
-0.724377
-0.488198
-0.486218
-0.666789
-0.891913
-1.26449
-2.4565
-4.732
-4.88394
-4.42058
-5.21505
-5.23741
-4.60077
-3.41063
-1.8921
-1.12817
-0.275918
-0.635576
-0.555325
-1.44576
-1.0343
-0.62495
-1.06882
-1.47439
-1.41782
-0.988144
-0.71137
-0.744752
-0.796007
-0.868143
-1.13058
-2.25015
-4.56951
-4.89173
-4.00661
-4.90292
-5.19522
-4.0557
-2.80274
-1.60145
-1.13198
-0.287964
-0.663863
-0.50427
-1.48555
-1.20924
-0.957028
-1.52181
-1.93594
-1.88598
-1.42438
-1.04465
-0.857478
-0.729253
-0.85433
-0.947477
-1.71153
-3.80396
-4.5217
-3.76697
-4.18747
-4.66296
-3.31654
-1.93794
-1.23241
-1.13031
-0.325741
-0.6888
-0.483578
-1.52096
-1.51745
-1.53618
-2.06722
-2.3221
-2.24222
-1.7674
-1.19259
-0.644985
-0.334883
-0.531224
-0.554992
-1.0547
-2.78028
-3.86745
-3.5501
-3.62771
-4.04237
-2.55235
-1.06878
-0.882048
-1.04733
-0.276578
-0.714169
-0.539133
-1.70729
-1.81862
-2.09097
-2.62164
-2.65665
-2.43721
-1.83085
-0.993045
-0.255567
0.150774
-0.00651899
-0.058244
-0.665287
-2.17991
-3.65025
-3.53928
-3.23217
-3.37239
-2.05487
-0.610091
-0.743207
-0.89569
-0.168054
-0.738953
-0.584056
-1.97774
-2.19292
-2.59132
-3.10924
-3.05786
-2.65628
-1.87163
-0.850468
-0.0882133
0.346318
0.347613
0.28567
-0.352352
-1.95523
-3.76314
-3.54333
-2.98487
-2.75033
-1.7298
-0.515671
-0.726389
-0.713369
-0.103093
-0.758929
-0.620066
-2.16552
-2.58796
-3.08865
-3.70133
-3.59562
-2.9515
-2.01126
-0.935617
-0.227953
0.258223
0.463163
0.380024
-0.264347
-1.89849
-3.6697
-3.4876
-2.77053
-2.19797
-1.39627
-0.347738
-0.571227
-0.648783
-0.0780106
-0.774613
-0.719888
-2.45248
-3.22932
-3.9296
-4.42227
-3.98641
-3.02503
-2.03217
-1.08311
-0.479464
-0.0514466
0.207312
0.0547441
-0.68267
-1.99663
-3.19003
-3.10059
-2.44872
-1.75047
-1.0775
-0.248962
-0.510538
-0.612221
0.00241427
-0.785018
-0.857038
-3.07169
-4.69754
-5.53294
-5.10168
-3.7585
-2.56146
-1.74865
-0.962011
-0.475404
-0.294682
-0.139784
-0.398642
-1.11862
-2.00371
-2.48735
-2.43926
-1.97714
-1.41314
-0.931169
-0.378602
-0.527722
-0.503328
0.154422
-0.747907
-1.02104
-4.03406
-6.92157
-7.5482
-5.45067
-3.10051
-1.90674
-1.22195
-0.408306
0.0288244
-0.0760919
-0.11795
-0.428895
-0.963035
-1.55968
-1.82368
-1.83582
-1.58253
-1.2157
-0.968524
-0.581814
-0.41951
-0.2992
0.27399
-0.588596
-1.10774
-4.90117
-8.65085
-8.4997
-4.96596
-2.43814
-1.36819
-0.502091
0.393896
0.773511
0.587898
0.320858
0.0230849
-0.376133
-0.893306
-1.28268
-1.40177
-1.27764
-1.05362
-0.971329
-0.682537
-0.278499
-0.0767184
0.363261
-0.28586
-0.827031
-4.93814
-8.48486
-7.60167
-3.95519
-1.96996
-0.968735
0.0245981
0.937109
1.34868
1.23613
0.876363
0.540405
0.217575
-0.29013
-0.801818
-1.0318
-0.966955
-0.822478
-0.839522
-0.712182
-0.296221
0.0633521
0.461449
0.134913
-0.0706232
-3.94411
-7.04662
-6.14907
-3.65477
-2.12812
-0.934876
-0.0374933
0.874859
1.52887
1.64044
1.358
0.984705
0.674333
0.219654
-0.297146
-0.629972
-0.653784
-0.511939
-0.568281
-0.686201
-0.321969
0.368125
0.709411
0.610158
0.715005
-2.50778
-5.49823
-5.3329
-4.06634
-2.65199
-1.22419
-0.308097
0.527246
1.27923
1.70515
1.67295
1.36204
0.981506
0.546119
0.045365
-0.397325
-0.565616
-0.431332
-0.497342
-0.775279
-0.269615
0.774761
0.957568
0.932507
0.932132
-1.64679
-4.35915
-4.73987
-4.10699
-3.13963
-1.80379
-0.608194
0.345486
1.0419
1.62104
1.78875
1.53621
1.04989
0.565682
0.119253
-0.26538
-0.416279
-0.314412
-0.427121
-0.731213
-0.206073
0.591736
0.787636
0.0510003
0.0196
-0.451676
-0.610496
-0.473273
-0.256433
0.0424637
0.0490735
-0.377888
-0.237306
0.690583
0.516014
-0.365829
-1.01657
-1.31311
-1.24617
-0.703046
-0.232596
-0.452906
-0.508377
-0.265025
-0.10664
0.0761298
-0.0453897
0.326501
-0.00319784
-0.0557113
-0.661598
-0.835391
-0.657737
-0.363338
-0.116076
-0.313479
-0.923094
-0.852668
-0.126987
-0.406329
-1.51923
-2.21976
-2.44739
-2.17633
-1.32195
-0.464626
-0.506773
-0.645249
-0.492823
-0.431122
-0.441695
-0.290907
0.134098
-0.0495268
-0.0966092
-0.905072
-1.02576
-0.608392
-0.21012
-0.241085
-0.471855
-0.995008
-1.18124
-0.604343
-0.893054
-2.05018
-2.7572
-2.92751
-2.51447
-1.71601
-1.03987
-1.03518
-1.07363
-0.88132
-0.674302
-0.821027
-0.530983
-0.41383
-0.0980767
-0.0960331
-1.08321
-1.02538
-0.426973
-0.164989
-0.725809
-0.92967
-1.20022
-1.4869
-1.16025
-1.49262
-2.34869
-2.72261
-3.01377
-2.85001
-2.01904
-1.48643
-1.77451
-1.88619
-1.64318
-1.22328
-1.2893
-0.814857
-0.29663
-0.160528
-0.155816
-1.25875
-0.968337
-0.296442
-0.285573
-1.03645
-1.06021
-1.05607
-1.49358
-1.4685
-1.70961
-2.36968
-2.51972
-2.89919
-3.08465
-2.14731
-1.66041
-2.25679
-2.69473
-2.55058
-1.9374
-1.74518
-1.19594
-0.183228
-0.243959
-0.342673
-1.39924
-0.929859
-0.281434
-0.504608
-1.09615
-0.897105
-0.759218
-1.36681
-1.75513
-1.92284
-2.41928
-2.41464
-2.73086
-3.23225
-2.33198
-1.86359
-2.49985
-3.25246
-3.2757
-2.44017
-2.09933
-1.58622
-0.249493
-0.338985
-0.597147
-1.37498
-0.914107
-0.414475
-0.773259
-1.2288
-0.90676
-0.67838
-1.18579
-1.82545
-2.12304
-2.53861
-2.37767
-2.7258
-3.51441
-2.7919
-2.2604
-2.72727
-3.471
-3.58585
-2.55604
-2.11773
-1.87757
-0.302537
-0.430207
-0.783844
-1.24228
-0.900604
-0.544349
-1.05135
-1.4256
-1.09985
-0.844226
-1.10746
-1.66246
-2.16496
-2.6305
-2.31344
-2.91734
-4.13538
-3.46218
-2.78556
-3.03231
-3.54457
-3.50835
-2.32004
-1.77586
-1.91804
-0.242051
-0.507903
-0.849997
-1.22851
-0.908446
-0.620867
-1.23845
-1.58218
-1.21987
-0.917396
-1.06379
-1.43264
-1.96016
-2.44359
-2.2185
-3.20589
-4.98016
-4.36389
-3.28568
-3.36366
-3.72633
-3.33547
-1.8892
-1.29853
-1.67823
-0.19487
-0.580301
-0.913854
-1.42731
-0.997061
-0.721305
-1.36011
-1.74405
-1.39521
-0.954321
-0.947184
-1.21544
-1.64397
-1.98936
-2.20536
-3.7883
-5.72871
-5.37376
-3.99326
-3.9262
-4.05844
-3.18336
-1.47316
-0.906542
-1.29294
-0.229064
-0.647333
-0.988256
-1.6832
-1.12722
-0.889784
-1.45348
-1.81623
-1.65447
-1.13208
-0.799351
-0.971545
-1.42433
-1.59239
-2.17571
-4.11288
-6.3154
-6.34612
-4.84276
-4.44786
-4.28164
-2.88389
-0.997758
-0.578012
-1.02418
-0.26348
-0.707462
-1.05631
-1.93182
-1.25129
-1.00407
-1.6048
-1.967
-1.90288
-1.30599
-0.722057
-0.842486
-1.42424
-1.5947
-1.86992
-3.40293
-6.09536
-6.62055
-5.01777
-4.30136
-4.12981
-2.66285
-0.773418
-0.414377
-0.999959
-0.360569
-0.7551
-1.06844
-2.06927
-1.37679
-1.16576
-1.81287
-2.14629
-2.05061
-1.392
-0.769969
-0.846964
-1.46806
-1.6582
-1.63928
-2.45244
-4.41659
-5.66471
-4.4298
-3.62022
-3.54134
-2.38935
-0.670992
-0.296552
-0.938679
-0.218689
-0.79203
-1.03961
-2.11448
-1.48416
-1.479
-2.16591
-2.39014
-2.15342
-1.45809
-0.829267
-0.772586
-1.2272
-1.40885
-1.44921
-2.15684
-2.99557
-3.93939
-3.56795
-2.75571
-2.69292
-1.90623
-0.493228
-0.300852
-0.886383
-0.121755
-0.820146
-0.990798
-2.1951
-1.71923
-1.99021
-2.64516
-2.64123
-2.24465
-1.45979
-0.714271
-0.521003
-0.868333
-1.09534
-1.11601
-2.14174
-2.56788
-2.78266
-3.14875
-2.39842
-2.01957
-1.46555
-0.353761
-0.228596
-0.675418
-0.0496266
-0.842679
-0.872848
-2.32098
-2.22036
-2.63303
-3.15467
-2.86778
-2.27915
-1.41499
-0.559271
-0.226758
-0.52874
-0.886192
-0.84622
-1.63188
-2.20439
-2.5964
-3.14811
-2.45553
-1.7345
-1.20613
-0.325138
-0.0997615
-0.570026
-0.0245816
-0.865681
-0.771666
-2.56802
-2.84817
-3.2247
-3.65698
-3.16571
-2.2964
-1.40587
-0.59056
-0.0922525
-0.174374
-0.581304
-0.643414
-0.973616
-2.13314
-2.99869
-2.69368
-2.23833
-1.68826
-1.17101
-0.262602
-0.0941218
-0.646005
-0.0593195
-0.898428
-0.853144
-3.13251
-3.84805
-4.11987
-4.25984
-3.43501
-2.14311
-1.24269
-0.747046
-0.290984
-0.147665
-0.50291
-0.777619
-0.957373
-2.29853
-3.06013
-2.43241
-1.88046
-1.65598
-1.20838
-0.226389
-0.196048
-0.835045
-0.0756866
-0.90177
-1.08648
-4.16373
-5.71464
-5.89285
-4.95963
-3.2692
-1.65893
-0.777121
-0.647758
-0.402116
-0.310469
-0.62668
-1.0753
-1.36677
-1.94215
-2.48534
-2.25682
-1.77794
-1.60605
-1.22537
-0.335519
-0.217155
-0.77206
-0.00236748
-0.786507
-1.35274
-5.32594
-7.96306
-8.02721
-5.70626
-2.84026
-1.23483
-0.370856
-0.237383
-0.129508
-0.198164
-0.494675
-0.941177
-1.32505
-1.56876
-1.79996
-1.87483
-1.6547
-1.39315
-1.13314
-0.45357
-0.083919
-0.543551
0.107288
-0.516006
-1.33805
-5.72953
-8.98322
-8.77086
-5.75001
-2.73619
-1.17013
-0.125294
0.209933
0.311762
0.220702
-0.0799238
-0.501523
-0.90995
-1.25016
-1.44384
-1.48189
-1.31372
-1.10314
-1.0185
-0.501501
0.109328
-0.246145
0.287483
-0.11759
-0.76573
-4.83298
-7.8507
-7.41416
-4.79282
-2.78747
-1.39014
-0.178721
0.41958
0.645381
0.595671
0.35904
-0.0255235
-0.412989
-0.879661
-1.18942
-1.18405
-0.996511
-0.889662
-0.943039
-0.5624
0.149821
-0.00847763
0.477598
0.369797
0.233596
-3.11564
-5.82985
-5.80317
-4.49309
-3.39356
-1.90919
-0.465283
0.419965
0.748162
0.75397
0.614114
0.312478
-0.00621736
-0.487361
-0.886928
-0.932267
-0.73545
-0.61866
-0.73428
-0.604004
-0.0672521
-0.0866961
0.48546
0.862381
1.22848
-1.40189
-4.22735
-5.22281
-5.16018
-4.3101
-2.57781
-0.963002
0.131151
0.595088
0.903191
0.881422
0.508949
0.213445
-0.113708
-0.4913
-0.68962
-0.645428
-0.539807
-0.694508
-0.906503
-0.472428
0.144587
0.700087
1.16486
1.55145
-0.55689
-3.08798
-4.60386
-5.12773
-4.58123
-3.16815
-1.58013
-0.288672
0.431106
0.952247
1.05692
0.591341
0.116939
-0.112789
-0.352375
-0.60946
-0.680884
-0.627234
-0.858939
-1.20133
-0.721316
0.0760057
0.662087
0.192178
0.188424
-0.214882
-0.464498
-0.546199
-0.580749
-0.37829
-0.58759
-0.934177
-0.388266
0.556614
0.842131
0.279685
-0.463403
-0.815833
-1.55491
-1.47711
-1.55888
-1.40584
-0.889422
-0.552545
0.077047
0.791214
0.625439
0.616435
0.13361
0.116616
-0.338505
-0.629503
-0.724441
-0.708655
-0.466764
-0.770638
-1.37748
-0.93582
0.308322
0.677463
-0.183843
-1.07932
-1.45079
-2.15458
-2.22631
-2.15614
-1.89308
-1.31389
-0.715048
-0.0280055
0.119514
-0.742659
-0.434964
0.0865189
0.0915968
-0.48098
-0.726326
-0.592612
-0.513169
-0.442148
-0.587012
-1.07608
-0.802848
0.346832
0.80805
-0.284947
-1.2309
-1.34939