/*--------------------------------*- C++ -*----------------------------------*\
  =========                 |
  \\      /  F ield         | OpenFOAM: The Open Source CFD Toolbox
   \\    /   O peration     | Website:  https://openfoam.org
    \\  /    A nd           | Version:  11
     \\/     M anipulation  |
\*---------------------------------------------------------------------------*/
FoamFile
{
    format      ascii;
    class       surfaceScalarField;
    location    "15";
    object      phi;
}
// * * * * * * * * * * * * * * * * * * * * * * * * * * * * * * * * * * * * * //

dimensions      [0 3 -1 0 0 0 0];

internalField   nonuniform List<scalar> 
49858
(
2494.76
418.942
316.364
1620.48
891.534
124.601
-85.4162
1640.72
314.521
-2381.95
2104.19
523.905
-2482.32
2101.23
-1618.43
-782.581
972.912
-2318.64
1093.12
727.954
-2138.33
1309.87
1624.68
-1394.7
1692.37
1122.12
-1067.64
2849.42
2822.71
-3269.68
2448.07
-196.762
860.226
4091.85
952.329
-2231.38
4007.37
34.3662
289.522
2821.84
-54.1927
1373.8
1062.19
-354.113
2097.84
-821.994
-747.319
2534.63
-2468.69
-729.207
2284.62
-3670.78
-449.698
1547.42
-3656.04
-836.331
709.461
-1970.78
-1711
-89.5223
269.633
-1762.79
-589.344
1712.78
-1123.28
-400.832
2430.35
-842.944
13.0158
2370.43
-665.636
656.252
1274.72
967.256
2980.14
348.267
300.867
2895.12
920.347
164.075
2236.47
1864.56
549.295
-277.425
3256.28
1542.36
-2300.42
3792.95
571.536
-2651.24
3168.49
-1569.79
-1321.25
2441.4
-2639.67
-720.001
3189.82
-1716.73
-62.2998
2806.26
-1827.86
3719.6
2057.07
-2164.17
3004.87
-2463.9
3335.37
3239.19
-760.464
1882.97
2359.96
-354.181
1609.42
1124.36
-852.532
2203.67
-343.861
-1369.51
2502.94
-1695.39
-1653.43
2204.5
-2615.02
-1552.46
1680.61
-3058.26
-1359.92
1286.19
-2675.5
-2188
909.35
-1422.63
-3643.36
642.276
-166.99
-3715.48
684.916
997.906
-2899.57
592.226
1853.81
-2217.15
458.3
2476.66
-1825.55
456.576
855.775
931.906
2946.89
329.581
287.697
3007.57
832.687
77.2644
2618.9
1792.56
522.351
1361.31
3203.04
1392.15
620.552
3680.55
930.716
-1137.04
5041.8
-9.87281
-1995.02
4555.68
-1117.9
-1240.63
4031.6
-1380.02
332.335
3467.47
-1956.54
3303.76
2189.42
-2586.01
1162.83
-3189.03
3181.73
670.307
-2236.47
2246.51
285.991
-2371.99
2612.77
-549.658
-2586.32
2688.46
-1459.03
-2898.29
2472.32
-2221.45
-2911.61
1997
-2646.46
-2779.01
1616.18
-2637.29
-2811.68
1419.94
-2227.07
-3823.74
1177.33
-1300.87
-5557.55
939.514
-178.633
-5886.53
995.427
887.995
-4889.55
875.283
1696.8
-3714.9
613.512
2502.78
-3059.83
386.364
45.8038
725.599
2950.23
302.399
276.341
2981
814.599
20.3834
2430.1
1795.55
563.664
1988.47
2736.03
945.415
2279.29
2966.54
470.074
-471.613
7034.47
824.743
-2625.79
7332.42
-486.28
-1804.73
5558.41
-2109.7
383.544
4284.94
-2676.24
1938.09
3369.01
-2331.45
522.74
-727.918
-529.71
-474.778
-2308.63
1595.54
-1215.16
-3354.3
2042.17
-1870.88
-3872.91
2179.23
-2455.8
-4179.56
1985.87
-2918.28
-3953.22
1551.02
-3089.54
-3774.5
1208.11
-2812.88
-4112.78
1077.95
-2123.66
-5370.64
914.8
-1098.04
-7263.6
709.326
14.86
-7840.09
863.779
993.756
-6724.54
862.285
1658.88
-5038.1
641.624
2467.51
-4049.17
176.304
-926.951
688.96
2941.36
292.975
273.825
3003.15
743.793
-17.2237
2449.73
1720.43
615.984
2335.53
2298.22
525.873
2229.77
2959.14
119.978
-1204.47
9195.51
1305.88
-3070.57
9729.29
-456.402
-1787.28
7018.46
-2645.51
476.782
5217.08
-3065.02
1229.95
4898.35
-2116.27
157.283
3076.83
-2352.71
-1146.71
-1078.36
445.69
-2281.58
-3129.85
1109.71
-2961.14
-4182.45
1127.22
-3440.36
-4608.62
972.612
-3706.46
-4270.67
601.064
-3615.57
-4110.42
276.039
-3148.32
-4751.29
205.802
-2305.85
-6338.86
146.313
-1148.68
-8492.69
52.7503
108.049
-9473.04
358.353
1137.41
-8347.34
567.537
1738.06
-6161.81
500.289
2464.3
-4678.17
-95.7344
-1744.62
421.7
2932.5
274.412
274.346
3055.54
626.7
-33.9079
2637.23
1506.93
587.685
2556.84
1999.03
322.895
1558.41
3584.19
349.652
-1985.16
11364.1
1392.04
-3074.04
11571.3
-699.726
-1613.43
8434.6
-2773.93
559.134
6386.05
-3198.79
1676.36
6158.93
-2190.18
-60.4981
6586.8
-1528.86
-2426.19
1593.66
49.2434
-2981.08
-2750.62
465.536
-3577.01
-3716.33
354.163
-4032.58
-4039.11
19.7557
-4236.12
-3611.64
-375.494
-3990.2
-3569.8
-711.098
-3351.04
-4496.29
-798.492
-2382.63
-6364.87
-877.212
-1106.2
-8858.84
-878.447
260.619
-10390.3
-445.451
1414.22
-9533.79
37.6982
2117.82
-7087.72
223.014
2790.27
-5152.46
-147.809
-2228.75
-167.04
2958.23
231.136
278.983
3045.53
491.914
-9.10569
2786.36
1216.88
496.121
2673.09
1701.59
374.853
736.017
4661.63
856.354
-2697.96
13539.3
1285.73
-2944.91
12835.7
-979.604
-1422.67
9678.45
-2724.4
544.91
7564.98
-3125.99
2131.3
6919.53
-2308.27
67.7883
8609.38
136.865
-3333.6
4237.23
899.559
-3250.62
-2542.24
-88.6094
-3766.89
-2599.53
-472.012
-4400.57
-2443.63
-891.02
-4709.69
-2057.67
-1216.4
-4417.57
-2224.92
-1600.52
-3592.5
-3420.57
-1852.57
-2360.56
-5514.86
-2078.61
-866.569
-8323.79
-2048.45
558.124
-10343
-1495.36
1771.68
-9996.65
-771.337
2542.77
-7729.16
-143.859
2659.75
-5380.74
124.345
-2481.48
-89.8988
2971.83
154.52
292.076
2944.98
398.817
55.2379
2856.43
820.786
421.453
2642.23
1243.12
610.186
-153.158
6081.65
1361.06
-3166.58
15435.4
1124.13
-2823.7
13728.7
-1219.8
-1296.57
10793
-2626.36
422.494
8818.67
-2944.34
2112.24
7644.39
-2353.74
395.477
9728.48
663.217
-2722.3
6098.62
1350.15
-3264.83
-1739.57
-74.5541
-3743.94
-955.1
-1003.2
-4649.78
73.9911
-1535.6
-5196.63
357.418
-1837.21
-5079.23
19.3517
-2340.94
-4138.71
-1555.11
-2816.17
-2378.09
-3937.71
-3369.87
-520.558
-6933.47
-3313.64
921.356
-9198.38
-2650.01
2039.63
-9434.26
-1745.58
2600.37
-7640.62
-705.286
2595.93
-5354.41
-43.3246
-2545.65
-192.027
2966.59
55.5023
320.618
2791.41
389.787
126.871
2608.83
561.399
389.954
2111.37
915.702
814.788
-996.101
7486.55
1713.42
-3402.24
16897.2
961.667
-2747.5
14499.6
-1399.11
-1250.04
11824.4
-2529.32
279.802
10020.5
-2754.66
1903.53
8428.09
-2424.55
1005.13
10266.9
376.828
-1909.7
7492.46
1570.63
-3363.92
-225.288
40.9189
-3833.42
573.43
-982.966
-4730.67
2738.7
-1747.47
-5289.07
3160.95
-2268.49
-5297.22
3021.57
-3026.88
-4461.61
1397.79
-3844.46
-2348.16
-1509.63
-4661.08
-119.003
-4657.79
-4612.21
1395.28
-7022.97
-3765.76
2279.46
-7676.43
-2696.56
2616.52
-6610.71
-1418.51
2720.94
-5184.73
-310.066
-2384.98
-256.336
2918.06
-42.5384
371.753
2659.33
416.355
183.347
2395.27
401.787
370.35
1587.98
667.676
1031.51
-1635.73
8786.4
1925.27
-3496.88
17917.9
852.818
-2723.73
15235.9
-1511.76
-1277.22
12833.9
-2475.36
143.178
11209.4
-2637.01
1629.86
9470.99
-2533.81
1712.45
10576.6
-386.002
-902.772
8752.55
1364.62
-2927.91
1679.99
140.922
-3769.2
1894.44
-445.737
-4671.43
5165.77
-1525.43
-4958.59
5892.83
-2476.14
-4648.92
6240.73
-3601.17
-3851.07
5216.95
-4732.11
-2068.25
2250.23
-5724.03
336.907
-1346.56
-5918.61
1908.9
-3988.32
-4773.8
2625.44
-5087.17
-3456.44
2942.43
-4973.06
-2081.5
1503.5
-3429.26
-401.923
-1061.36
-82.5403
2839.08
-116.815
427.456
2527.05
483.928
220.53
2200.02
376.889
334.398
1175.71
438.185
1276.55
-2028.08
9935.06
2069.72
-3495.35
18564.7
835.012
-2735.6
16013.7
-1529.44
-1361.33
13909.3
-2461.11
12.8683
12368.6
-2572.17
1405.71
10634
-2587.29
2206.78
10946
-1177.52
326.586
9880.53
754.704
-2084.95
3659.89
444.344
-3351.78
3072.52
116.209
-4369.33
7206.92
-1031.8
-4480.34
8351.75
-2385.15
-3676.45
9117.87
-3743.39
-2254.53
8569.47
-4877.25
-782.164
6177.28
-5551.33
860.499
2801.84
-5945.19
2234.6
-199.265
-5290.23
2849.54
-1881.05
-3928.96
2901.6
-2732.47
-2383.22
2502.73
-2447.73
-647.739
-1132.64
46.1336
2739.34
-136.807
482.53
2639.21
362.357
214.042
2442.94
197.626
385.945
998.641
366.333
1538.4
-2215.87
10966.2
2205.31
-3430.12
18858.3
934.359
-2778.04
16781.3
-1419.17
-1490.33
15024.8
-2436.85
-125.024
13483.1
-2526.17
1234.89
11779.8
-2536.8
2419.13
11463.9
-1716.06
1505.29
10761.2
17.3448
-1127.58
5636.86
635.96
-2742.87
4049.72
606.676
-3695.5
8559.64
-424.849
-3682.26
10276.7
-1983.06
-2605.25
11253.1
-3287.02
-944.204
10869.1
-4067.8
271.071
8980.04
-4116.79
1213.01
6148.2
-4411.35
2178.7
3280.3
-4562.5
2641.2
1139.87
-3637.5
2465.67
-531.212
-2196.25
1995.83
-1472.75
-637.99
-1237.77
21.4485
2643.14
-118.367
538.315
2706.9
149.963
175.771
2492.53
-59.8822
511.949
833.795
289.162
1788.3
-2292.55
11751.1
2367.01
-3334.66
18749
1167.42
-2845.71
17445.5
-1145.94
-1639.91
16145.1
-2339.59
-272.294
14561.9
-2474.95
1075.44
12820.6
-2404.13
2410.58
12083.1
-1949.66
2390.53
11451.2
-668.584
9.75194
7555.96
463.122
-2011.66
5013.04
1082.95
-2730.91
9109.18
192.661
-2610.42
11506.4
-1352.54
-1468.2
12447.1
-2364.81
85.214
12009.2
-2736.95
970.541
10452.7
-2435.71
1375.07
8277.61
-2579.51
1787.94
5742.21
-2921.12
1980.18
3293.12
-2399.66
1720.87
1069.36
-1416.61
1357.34
-798.508
-358.315
-1848.73
170.274
2568.9
-72.7737
592.197
2754.73
-92.5941
89.0346
2436.67
-482.77
767.73
638.424
103.03
2044.3
-2310.33
12127.4
2590.71
-3242.5
18168.4
1526.58
-2935.99
17784
-656.007
-1807.27
17064.4
-2080.47
-436.819
15516.4
-2374.17
907.817
13685.7
-2242.87
2271.98
12667
-1959.96
2920.7
11962.9
-1171.22
1290.53
9125.64
56.507
-1067.14
6099.79
1267.87
-1646.72
8887.56
803.347
-1400.61
11801.2
-544.247
-395.439
12676.2
-1254.89
834.91
12181.3
-1424.15
1470.42
10820.8
-1012.77
1504.47
9092.25
-864.155
1451.71
7074.71
-1296.72
1400.75
4335.88
-1032.49
1258.9
1433.74
-371.916
924.617
-884.077
280.165
-2628.36
386.317
2562.19
-42.7278
611.726
2701.17
-217.675
31.3797
2199.49
-925.556
997.645
319.927
-155.289
2200.88
-2298.6
11979
2796.23
-3196.35
17123.7
1960.41
-3046.1
17606.5
40.4137
-2003.76
17606
-1589.48
-637.177
16293.7
-2150.83
719.445
14426.5
-2086.47
2067.35
13213.3
-1866.74
3137.8
12360.8
-1448.13
2373.99
10305.5
-394.585
102.69
7298.8
1126.47
-575.124
8370.53
1272.18
-271.359
11307.6
250.132
446.238
12194.6
-189.457
1242.71
11642.1
-224.352
1582.29
10196.6
318.709
1325.79
8554.68
827.877
922.626
7190.03
339.977
526.522
4619.55
109.772
418.479
1189.41
321.772
211.884
-1340.58
643.716
-2972.71
167.161
2616.82
-45.7159
593.414
2707.11
-396.968
66.7321
2171.21
-1631.95
1229.62
34.8598
-228.536
2172.87
-2260.37
11402.8
2856.2
-3149.46
15651.5
2331.76
-3130.26
16774.9
774.402
-2230.7
17575.6
-914.68
-889.404
16668.7
-1763.6
496.057
14916.3
-1905.82
1832.96
13618.7
-1746.29
3141.68
12602.7
-1545.87
3129.98
11115.6
-780.341
1333.78
8325.81
800.546
428.22
7781.55
1526.96
655.19
10157
945.747
1101.04
11043.4
720.009
1519.15
10507.1
746.066
1500.15
9001.22
1256.34
870.419
7122.99
2108.73
72.906
6130.35
1909.35
-1091.76
4664.01
1164.46
-486.122
747.037
-231.73
-174.722
-1055.25
-704.248
-2575.1
-1363.94
2680.07
-99.5619
563.017
2777.85
-630.854
135.268
2182.84
-2523.24
1468.64
-235.744
145.924
2057.4
-2233.93
10617.7
2768.09
-3112.59
13986.4
2537.21
-3254.71
15532.9
1375.04
-2499.5
17000.8
-188.04
-1187.97
16612.2
-1256.49
242.175
15163
-1650.74
1604.33
13893.4
-1592.41
3029.94
12736.3
-1527.35
3584.92
11630.8
-1035.64
2449.51
9074.75
447.424
1413.54
7333.46
1572.28
1433.52
8736.27
1483.17
1650.76
9497.33
1395.33
1779.81
9043.21
1412.58
1447.1
7731.57
1681.9
353.701
5800.7
2519.73
-872.478
4661.15
2821.78
-1562.68
3314.81
2145.14
-195.281
-233.927
-279.145
340.133
195.185
-1705.88
-1313.56
-2019.72
2765.77
-194.169
528.433
2939.65
-1150.48
272.347
2186.13
-3492.15
1642.69
-484.797
629.909
2029.23
-2270.78
9670.39
2668.93
-3132.2
12177.9
2604.52
-3408.41
13966
1789.18
-2765.61
15864.7
444.467
-1511.58
16050
-728.749
-39.0851
14988.3
-1321.63
1380.04
13841.6
-1374.42
2856.8
12680.7
-1411.83
3813.69
11833.1
-1133.97
3354.07
9394.76
172.34
2385.14
6855.74
1468.57
2164.38
7167.25
1779.55
2162.12
7668.06
1815.71
2076.72
7322.43
1800.33
1582.09
6380.94
1859.46
193.672
4815.13
2404.23
-1501.61
3474.54
2931.55
-2439.08
1928.42
2391.43
-1547.16
-1088.9
15.9436
-255.001
-16.0282
-1087.1
-1439.12
-1534.46
2844.01
-369.534
514.814
3081.82
-1813.79
384.821
2000.21
-4077.39
1626.16
-832.439
1163.37
2270.89
-2432.74
8455.3
2785.29
-3254.32
10319.7
2660.46
-3609.31
12268.3
2047.43
-3060.09
14397.4
920.553
-1845.82
15076.8
-231.61
-328.441
14430.5
-931.071
1167.41
13453.6
-1062.24
2654.53
12407.1
-1183.83
3873.74
11687.5
-1046.9
3997.88
9263.89
50.2808
3281.73
6304.63
1323.08
2908.76
5693.54
1886.18
2718.54
5876.42
2015.08
2472.09
5635.88
1979.34
1934.61
5063.86
1912.59
633.146
4032.81
2164.72
-1241.76
2856.84
2599.87
-2724.41
1184.03
2341.22
-2718.27
-1257.73
278.472
-713.405
-893.516
-1051.55
-2118.39
-2152.47
2947.55
-631.324
518.302
3250.93
-2436.55
314.717
1716.43
-4019.86
1462.07
-1263.44
1320.92
2793.18
-2702.16
6689.45
3207.76
-3487.47
8380.45
2740.36
-3873.26
10493.2
2186.01
-3365.54
12655.4
1254.14
-2185.15
13639.1
280.896
-633.577
13323.6
-421.728
947.193
12522
-628.309
2428.45
11760.9
-809.385
3808.77
11089.9
-740.071
4380.87
8637.87
115.291
4023.71
5522.65
1198.98
3646.42
4238.85
1858.62
3351.13
4130.07
2059.32
3003.59
3983.85
2016.88
2484.98
3727.57
1880.85
1452.12
3182.03
1916.5
-160.654
2344.17
2165.47
-1954.36
861.846
2157.82
-3097.08
-1141.31
1064.02
-3164.28
-935.362
113.356
-1075.15
-471.783
3128.97
-1037.11
481.436
3504.67
-2896.46
106.766
1457.55
-3235.45
1315.96
-1650.14
1145.41
3382.49
-3032.06
4477.73
3663.42
-3852.04
6410.36
2864.37
-4199.67
8645.32
2269.46
-3670.3
10686.2
1511.09
-2503.44
11741
794.796
-936.18
11590.2
223.713
728.164
10951.7
-28.8085
2193.83
10624.9
-277.02
3650.33
9927.11
-239.371
4528.96
7511.73
324.849
4543.21
4492.59
1105.87
4301.9
2806.81
1731.39
3998.91
2489.17
1993.88
3628.92
2428.04
1980.85
3179.99
2418.27
1817.6
2425.92
2299.52
1705.6
1239.3
1845.22
1762.15
-286.542
673.525
1789.19
-1746.66
-918.469
1297.6
-2385.6
-1030.23
771.142
-862.202
444.778
3362.91
-1528.01
353.525
3835.69
-3192.79
-2.74052
1721.58
-2270.1
1367.09
-1495.8
789.506
3855.9
-3371.98
2600.56
3948.94
-4319.45
4532.76
3016.14
-4517.14
6644.44
2376.8
-3902.86
8400.33
1838.04
-2728.11
9335.78
1379.08
-1191.16
9283.33
911.981
481.04
8744.96
666.813
1936.15
8853.25
428.321
3435.21
8183.58
382.015
4490.97
6055.2
613.703
4790.03
3443.81
1024.26
4750.42
1567.62
1527.53
4540.04
1094.12
1834.72
4231.22
1080.87
1879.95
3899.64
1212.12
1740.04
3402.86
1433.74
1546.66
2592.05
1376.63
1440.46
1403.97
587.227
1411.67
-18.7766
-650.092
1253.9
-1102.5
-1029.49
1126.36
-954.561
1117.48
3503.31
-1924.94
158.466
3836.67
-3338.17
68.6723
2065.56
-1780.97
1695.89
-974.13
581.499
3727.51
-3631.68
1684.23
3899.01
-4713.63
2847.06
3050.8
-4714.11
4453.27
2485.41
-3987.09
5809.13
2150.49
-2803.38
6527.89
1906.04
-1334.71
6487.51
1594.27
244.042
6062.64
1380.36
1723.46
6496.57
1112.79
3246.69
5953.31
962.898
4337.85
4458.79
857.44
4743.59
2645.91
843.654
4777.26
744.276
1184.61
4678.72
30.5785
1551.23
4486.66
-59.9337
1709.22
4306.33
88.4171
1670.07
4068.4
511.763
1497.28
3622.09
836.101
1296.13
2798.28
485.413
1178.2
1595.33
-413.543
1144.18
342.013
-917.216
1240.26
-1232.08
1374.6
3135.23
-1724.55
-54.7225
2503.99
-2417.44
242.838
382.054
-1361.93
2273.25
-1931.95
99.9353
3385.8
-4200.08
1212.15
3163.15
-5098.37
1535.37
2643.76
-4834.07
2354.11
2312.87
-3905.97
3186.57
2215.07
-2670.9
3599.18
2233.43
-1308.08
3494.5
2175.51
49.1951
3238.61
2010.17
1619.91
3718.9
1662.73
3239.79
3373.96
1392.49
4636.28
2598.42
939.251
5458.03
1858.57
524.461
5331.45
752.472
667.116
4806.02
111.367
1045.63
4248.12
-238.595
1399.23
3866.33
-434.201
1601.71
3675.66
-208.17
1598.6
3494.26
202.172
1436.87
3047.94
149.719
1282.3
2203.86
-457.193
1239.9
1166.14
-1020.25
1334.99
-1492.45
1334.18
1695.93
-137.605
-381.256
-154.675
-3221.26
1625.11
-4898.04
1908.22
-5450.59
1901.74
-5567.5
1814.34
-4828.34
1806.2
-3491.79
2062.15
-2134.43
2462.71
-1056.7
2634.1
-87.9516
2475.38
1651.53
2164.47
3280.95
1907.69
4787.74
1239.82
6038.6
757.962
6339.6
619.482
5948.51
708.145
4970.38
982.795
3577.27
1226.59
2359.01
1273.1
1691.72
1097.67
1135.53
878.712
38.372
751.239
-1780.37
849.556
915.566
3140.41
367.365
36.473
2477.85
785.485
155.264
1559.05
1198.74
253.723
537.25
696.141
1217.68
446.011
-226.636
-845.454
965.316
365.892
-2848.17
379.437
2113.14
-3366.08
185.237
2676.97
-3643.55
956.316
2244.39
-3901.09
841.539
1878.38
-4766.38
1873.51
-4835.69
4740.1
2391.91
-6170.56
3489.21
3185.48
-4545.22
4098.56
2132.66
-3147.31
5593.58
-420.159
-1847.07
6472.44
-2690.49
-1171.15
5918.13
-4050.72
-1433.99
5017.51
-4602.46
-2100.25
4149.61
-4083.2
-3253.84
3406.47
-2551.51
-4378.8
2743.29
-755.578
-4420.35
2042.64
838.993
-3661
1667.91
1949.78
-2716.02
1591.2
2442.14
-1331.37
1460.89
109.093
1242.54
3615.98
235.459
35.891
3750.92
826.169
101.463
4020.74
1391.73
192.26
3347.72
2069.73
964.322
2156.14
1429.52
291.831
1084.84
2287.75
-2226.15
450.341
4074.45
-3782.27
1334.1
4259.65
-4007.75
3008.46
3277.17
-4385.28
4075.04
2110.02
-3260.21
2225.83
-4544.54
4993.78
251.894
-7126.53
4913.7
-179.662
-7007.7
4584.02
-1353.83
-4682.58
4954.28
-3018.39
-2621.95
4937.74
-4503.54
-1673
4145.1
-5374.44
-2065.64
3131.85
-5525.61
-3360.58
2660.76
-4924.55
-5394.96
2427.98
-3648.37
-7097.28
2074.14
-1922.38
-7133.04
1671.1
-176.858
-5939.94
1125.07
1207
-4788.71
1109.47
2068.72
-2788.32
1013.66
186.414
972.654
3456.98
249.835
34.9683
3720.25
738.915
-22.912
4103.04
1404.34
194.019
4047.82
2649.94
933.689
3727.55
2142.34
600.271
2306.56
4720.64
-953.433
1204.39
6906.41
-2767.17
1771.64
6172.96
-3767.25
3531.75
3869.1
-4200.88
4366.22
2604.91
-3793.84
2019
-1399.13
2498.49
-900.909
-6094.36
4216.06
-2107.1
-7085.7
3955.5
-3261.21
-4436.25
3632.21
-4313.94
-2450.55
3349.32
-5054.72
-1685.93
2709.49
-5467.8
-2327.33
2246.43
-5473.93
-4075.41
2109.75
-5021.83
-6668.74
1978.43
-4025.97
-9007.47
1846.46
-2406.67
-9427.11
1672.52
-609.373
-7829.68
968.254
661.477
-6326.13
855.931
1536.89
-4118.72
820.951
579.587
703.119
3421.33
280.311
34.2257
3674.43
690.8
-129.021
3848.4
1567.58
257.498
3853.56
2703.65
906.704
4441.46
1518.52
531.363
3836.48
5976.03
213.556
2635.48
9305.93
-1615.95
2395.88
7828.72
-3432.84
3384.08
4216.96
-3894.11
4503.19
2806.23
-3514
3384.58
367.575
-908.222
-474.484
-3824.58
3384.04
-2938.65
-5445.38
3031.58
-4179.22
-3658.52
2760.82
-4954.57
-2049.2
2415.78
-5467.07
-1464
1840.6
-5762.76
-2236.12
1404.87
-5642.94
-4274.66
1163.27
-5179.3
-7317.52
1114.13
-4311.18
-10451.6
1290.4
-2760.32
-11538.7
1428.4
-983.253
-9693.67
950.468
-80.5375
-7375.66
772.376
429.359
-4915.84
447.579
1088.76
203.985
3435.79
302.088
25.8134
3697.93
633.619
-199.664
3824.83
1719.74
344.458
3596.6
2605.76
849.378
4130.08
1064.6
48.3018
4492.95
6360.8
589.749
3715.91
10491.9
-818.873
2997.02
8824.36
-2862.43
3030.74
4703.24
-3518.38
4099.9
2830.81
-3095.29
4375.71
352.347
-2433.79
-31.4131
-1225
2421.09
-3276.4
-3160.28
2205.38
-4906.09
-2444.82
1637.89
-5712.06
-1335.96
1104.04
-6075.84
-871.913
371.591
-6133.09
-1660.07
-247.656
-5875.72
-3818.73
-501.191
-5436.77
-7188.75
-417.836
-4671.36
-11185.5
21.4436
-3244.71
-13211.5
610.591
-1542.79
-11430.7
604.523
-822.788
-8122.91
526.297
-778.855
-5226.34
172.089
523.686
80.3361
3439.18
319.44
17.8715
3737.19
538.084
-226.242
3882.67
1750.25
401.343
3479.37
2550.48
765.269
3774.66
1422.49
-301.674
4706.8
6364.31
485.302
4348.46
10615.1
-417.549
3436.81
9313.84
-2288.54
2807.02
5450.93
-3233.45
3164.43
3257.95
-2867
3469.36
814.258
-2056.93
-983.108
1420.68
2029.69
-3702.21
-1181.93
1435.16
-5340.85
-798.13
488.67
-5976.66
-250.74
-354.409
-6199.86
237.309
-1231.27
-6122.01
-392.407
-2028.67
-5728.31
-2599.6
-2366.21
-5267.04
-6211.81
-2273.31
-4670.14
-10980
-1659.69
-3524.36
-14063.5
-731.802
-1985.67
-12932.7
5.04786
-1114.44
-9140.7
370.672
-1231.98
-5488.67
264.802
320.415
-843.382
3456.59
320.981
23.1061
3749.33
428.367
-205.816
3905.22
1672.72
400.407
3623.54
2526.9
666.596
3905.91
2310.79
-300.586
4850.31
6480
259.386
4665.32
10220.9
-358.65
3690.06
9482.56
-1879.1
2755.45
6243.56
-2951.61
2668.07
3895.16
-2803.11
2415.37
2200.71
-919.271
-1556.64
3945.16
2432.68
-4083.86
527.819
864.088
-5404.03
850.435
-719.694
-6019.77
1249.67
-1731.09
-6368.91
1943
-2556.72
-6329.7
1586.83
-3596.95
-5726.35
-839.203
-4185.63
-4964.29
-4812.97
-4218.61
-4267.59
-10262.4
-3453.46
-3349.24
-14198.3
-2273.37
-2045.38
-13916.3
-1087.52
-880.758
-10582.3
140.228
224.263
-6879.6
428.795
-2429.72
-33.0753
3484.6
278.569
44.5135
3729.41
372.759
-150.877
4074.13
1408.78
312.263
4280.53
2284.14
625.808
4517.57
3431.07
8.06059
5114.73
6960.85
72.5608
4806.64
9874.09
-531.029
3763.71
9605.05
-1673.8
2716.77
7105.87
-2726.65
2140.2
5066.85
-2909.65
1738.26
3859.72
-528.243
-1298.2
5807.64
2592.78
-4243
2365.06
1133.7
-5151.47
2120.68
-1280.63
-5893.94
3054.36
-2554.06
-6598.94
4145.73
-3328.59
-6789.77
4074.67
-4635.5
-6068.22
1232.46
-5602.31
-4729.84
-3612.53
-5906.82
-3606.94
-9575.1
-5122.21
-2747.22
-13923.7
-3791.72
-1772.16
-14265.2
-2386.95
-602.381
-11850.7
-628.34
18.9163
-7971.42
429.927
-3495.97
-304.496
3508.9
207.424
81.1698
3704.31
371.986
-95.7736
4156.97
1157.11
162.27
4907.92
1711.03
629.922
5287.27
4352.88
431.571
5513.67
7804.27
-74.6622
4899.68
9934.6
-811.264
3737.72
9854.58
-1598.72
2672.99
8000.49
-2588.06
1887.56
6528.8
-3104.6
1580.22
5608.01
-1063.82
-534.056
7140.86
2376.77
-3888.9
4238.6
1563.81
-4790.54
3186.16
-1097.63
-5558.75
4772.95
-2689.73
-6539.18
6451.39
-3609.6
-6893.6
6517
-5137.94
-6094.15
3057.57
-6498.49
-4205.77
-2974.01
-7204.02
-2705.23
-9120.31
-6587.35
-1795.15
-13446.9
-5170.04
-1078.54
-14092.1
-3602.57
-240.543
-12309.9
-1817.03
696.771
-9156.95
-82.1295
-4466.88
-42.431
3499.25
146.818
128.294
3688.16
388.697
-42.2133
4231.54
938.481
15.3753
5355.2
934.355
667.588
5927
4933.56
776.287
5929
8803.95
-133.725
5021.1
10451.3
-1107.58
3715.84
10286.7
-1602.01
2659.31
8867.93
-2457.62
1982.58
7907.25
-3248.82
1842.71
7265.55
-1914.6
414.544
8264.51
1663.86
-2954.67
5858.84
1900.15
-4417.88
4446.13
-222.057
-5152.99
6256.79
-2286.01
-6080.09
8427.24
-3563.81
-6180.4
8339.73
-5380.2
-5060.44
4191.87
-7069.23
-2943.97
-2841.35
-8084.29
-1449.16
-8893.1
-7705.15
-594.068
-12729.7
-6391.36
-118.384
-13436.9
-4637.84
70.9659
-11822.6
-2810.22
522.446
-9119.87
-926.727
-4916.84
46.1403
3509.69
91.0219
172.169
3662.32
421.93
21.4852
4241.08
747.589
-79.4578
5577.9
146.742
722.316
6309.2
5212.23
1070.95
6249.27
9814.8
-94.2275
5209.83
11332.5
-1353.76
3785.49
10943.7
-1694.88
2676.47
9676.36
-2298.72
2174.57
9024.92
-3233.89
2175.61
8669.48
-2609.52
1326.78
9221.21
633.738
-1746.39
7310.66
2066.17
-3775.12
5711.33
874.329
-4549.17
7584.14
-1612.49
-5122.81
9836.74
-3271.95
-4713.51
9340.88
-5223.25
-3270.61
4678.24
-6908.22
-1339.27
-2463.31
-7933.35
-37.3244
-8484.35
-7708.75
576.774
-11817.8
-6857.42
828.929
-12327.4
-5325.41
596.566
-10637.4
-3371.43
460.782
-8195.65
-1465.33
-4969.49
-22.5573
3539.84
25.8828
208.492
3651.88
448.55
71.5449
4292.17
542.847
-62.2708
5680.9
-518.015
815.585
6442.57
5334.61
1332.34
6406.05
10786.8
9.78763
5437.77
12426.2
-1547.22
3980.44
11854.7
-1909.37
2757.96
10520.2
-2177.7
2330.57
9945.44
-3059.5
2489.97
9774.85
-3007.27
2149.27
10057.3
-505.067
-396.438
8648.78
1822.69
-2647.22
6859.3
1696.23
-3567.66
8798.58
-754.583
-3756.06
10669.3
-2680.5
-2965.64
9593.9
-4407.64
-1508.19
4669.42
-5621.34
-116.899
-1658.54
-6487.02
1132.67
-7835.21
-6395.36
1402.31
-10630.7
-6079.82
1339.12
-10801.9
-5157.73
918.51
-8989.72
-3488.37
599.056
-6879.17
-1683.69
-5008.63
-152.74
3561.82
-38.7827
244.329
3730.9
398.299
70.0233
4541.43
168.738
81.4706
5726.62
-961.299
1061.04
6329.38
5481.4
1636.51
6326.23
11730.6
244.048
5603.61
13626.8
-1611.25
4275.55
13035.1
-2197.12
2965.85
11528.4
-2194.44
2458.62
10825.8
-2798.19
2679.03
10688.5
-3096.59
2822.71
10704.5
-1468.04
1027.13
9766.98
1136.87
-1200.02
8007.01
2160.45
-2216.95
9542.52
453.92
-2184.89
11074.6
-1820.77
-1169.05
9232.61
-3070.52
172.078
4168.11
-3656.69
797.192
-515.219
-4239.19
1851.69
-7011.87
-4490.11
1764.08
-9030.05
-4458.8
1251.46
-8764.26
-3952.69
751.889
-6994.76
-2944.41
610.772
-5526.94
-1589.87
-4973.69
-291.405
3546.98
-84.7958
296.464
3841.04
203.583
-1.91217
4758.14
-270.059
296.369
5598.54
-1212.05
1486.27
5919.9
5629.18
2146.82
5940.25
12451.8
798.567
5557.1
14691.4
-1340.17
4554.7
14290.8
-2353.07
3310.52
12710.4
-2337.5
2652.71
11770.7
-2548.97
2792.02
11487.6
-2910.1
3201
11179.9
-2068.17
2236.33
10530.7
252.138
237.302
9152.8
2126.98
-817.806
9970.05
1438.75
-573.306
11070.6
-791.666
477.721
8551.32
-1637.96
1609.91
3551.91
-1943.19
1898.26
312.686
-2163.34
2307.89
-5517.81
-2794.85
1739.3
-6905.14
-2872.66
786.91
-6421.74
-2451.92
384.566
-4889.91
-2127.32
761.911
-4258.85
-1409.37
-4587.84
-639.486
3499.69
-108.872
339.175
3834.92
-2.85446
-73.6574
4672.05
-644.226
555.161
5196.8
-1476.73
1980.97
5210.64
5598.49
2844
5250.32
12694.9
1701.36
5193.92
15394.7
-592.585
4644.16
15358.2
-2101.41
3679.54
13925.1
-2401.9
2959.68
12791.8
-2384.1
2923.12
12249.2
-2578.11
3364.82
11563.9
-2255.67
3096.04
10987.1
-558.128
1568.26
10173.2
1665.2
550.734
10288.9
2009.91
844.009
10744.2
315.094
1668.37
7951.8
-385.654
2346.75
3324.98
-624.907
2795.86
644.916
-383.459
2459.71
-3133.19
-1177.61
1543.58
-4110.66
-1505.81
496.846
-3880.66
-1370.77
372.766
-2840.95
-1615.56
1266.73
-2856.11
-1657.92
-3676.83
-1321.82
3485.72
-160.146
362.439
3783.83
-178.568
-93.2104
4650.8
-1146.07
848.74
4871.59
-1928.37
2407.06
4443.99
5441.45
3441.13
4323.33
12481.3
2653.26
4468.22
15523.4
482.319
4394.29
15861.3
-1375.45
3870.24
14804.3
-2147.04
3280.2
13692.2
-2233.54
3117.31
12918
-2254.45
3465.79
11821.5
-2148.18
3630.7
11173.2
-1114.97
2689.27
10915.4
1026.34
1769.11
10574.2
2193.82
1895.03
10323.2
1268.47
2365.33
7594.59
646.9
2537.94
3617.97
349.751
2757.37
1150.02
613.634
2208.62
-828.696
413.032
1473.89
-1448.95
36.4383
910.553
-1609.53
-508.421
1190.99
-1415.59
-1930.79
2246.32
-1796.8
-2823.21
-2800.1
-2510.8
3495.84
-274.019
369.511
3737.42
-240.052
-85.4622
4919.07
-2067.42
1182.88
4965.95
-2613.5
2685.88
3903.53
5583.17
3676.02
3368.74
12248.7
3292.68
3544.48
15222
1485.52
3829.84
15808.4
-432.685
3750.44
15157.3
-1535.85
3439.82
14275.3
-1917.88
3311.66
13409.4
-1938.97
3582.72
11951.4
-1904.94
3949.97
11187
-1384.58
3568.72
11359.3
425.18
2861.49
10825.6
2072.6
2773.2
10018.4
1919.11
2867.64
7498.14
1445.42
2662.93
4247.42
1070.3
2399.08
2140.09
1056.78
1892.74
968.687
1332.05
1553.61
329.177
1484.73
1638.2
-183.224
717.68
2292.65
-631.804
-1669.06
3192.81
-951.881
-3424.43
-1646.82
-3261.57
3498.09
-423.271
370.522
3807.89
-413.743
15.7002
5488.59
-3497.79
1332.14
5347.33
-3114.42
2596.1
3551.89
6433.95
3555.35
2453.76
12372.5
3522.7
2508.41
14752.3
2147.77
3027.94
15275.4
405.237
3337.76
14854.6
-787.622
3336.19
14297.7
-1380.12
3377.3
13497.7
-1520.59
3676.25
11808.7
-1576.88
4148.34
11022.1
-1435.2
4225.29
11504.3
-36.1593
3836.82
10916.5
1779.23
3651.93
9750.07
2237.39
3474.35
7483.92
2013.05
3104.41
4804.11
1638.08
2645.25
3057.9
1427.39
2111.76
2258.71
1679.26
1666.35
1591.61
2150.28
1623.5
646.554
1650.55
2099.46
-397.662
-665.234
3079.71
-321.695
-2685.64
-520.064
-2972.11
3446.65
-601.653
420.135
4063.62
-923.664
192.022
6047.63
-5074.22
1161.61
5282.46
-2762.61
2633.91
2831.26
7752.8
3872.83
1364.49
12661
3799.39
1361.28
14205.4
2570.54
2115.98
14433.6
979.375
2742.01
14125.7
-143.278
3001.26
13842.7
-741.077
3250.45
13145.2
-958.31
3666.82
11345.4
-1133.5
4246.58
10693.5
-1287.51
4691.19
11411.6
-285.788
4675.7
10793.2
1479.4
4542.22
9450.84
2325.87
4249.46
7450.39
2355.45
3801.31
5166.27
2089.68
3335.36
3643.44
1830.99
2875.06
3047.56
1871.75
2382.08
2560.05
2172.99
2102.44
1415.76
1896.99
1991.15
-204.368
232.545
2668.9
-422.829
-1614.09
-669.82
-2384.29
3477.67
-903.228
533.032
4697.41
-1838.19
-80.6213
6129.78
-6125.49
1042.8
4111.56
-1654.24
3641.27
1259.51
8511.27
5268.62
-92.6277
12222.8
4506.03
109.919
13161.7
3006.12
1094.02
13254.3
1436.79
1934.79
13068.9
476.122
2449.81
12914.5
-33.73
2930.38
12293.4
-272.163
3492.64
10526.5
-562.466
4221.77
10140.6
-917.691
4996.39
10994.4
-238.309
5361.82
10313.1
1315.02
5401.32
8939.08
2319.16
5152.08
7205.66
2533.68
4700.82
5215.45
2403.35
4224.15
3783.05
2197.19
3798.08
3265.54
2107.76
3336.22
3022.3
2147.7
2893.72
2131.83
1878.5
2370.25
531.425
845.541
2623.64
-62.1878
-507.733
-298.9
-1607.8
3650.64
-1435.25
545.467
5361.42
-2858.42
-600.147
5203.46
-6193.12
1530.74
1684.73
-408.653
5675
-1045.48
7791.15
7119.15
-1797.04
10469
5388.69
-1199.06
11345.9
3516.12
-55.2293
11647.9
2007.42
914.844
11651.5
1272.82
1656.66
11593
835.001
2404.64
11009.7
538.034
3134.6
9408.55
131.351
4060.78
9298.78
-303.032
5159.64
10098.1
147.895
5887.67
9346.01
1370.07
6175.51
8069.21
2329.42
6097.34
6650.17
2642.7
5735.29
4969.91
2611.65
5261.96
3641.42
2456.83
4835.62
3101.3
2320.24
4400.73
3002.12
2240.72
3863.76
2499.02
1982.23
3115.93
1315.65
1277.13
2833.15
516.952
475.98
59.4301
-575.804
3844.01
-2062.51
337.936
5488.42
-3773.26
-765.677
3194.89
-5034.42
2511.62
-1406.87
418.193
7658.57
-3474.92
5748.72
8080.28
-3522.42
7832.83
5720.12
-2599.45
9011.99
3821.27
-1412.27
9600.66
2731.72
-333.195
9694.42
2286.82
701.594
9662.65
1820.9
1717.59
9212
1455.33
2630.39
7910.27
1011.72
3801.91
7907.91
597.697
5197.5
8499.38
812.725
6226.89
7691.55
1631.66
6780.67
6613.32
2393.34
6942.89
5566.13
2715.59
6758.75
4257.34
2731.43
6353.4
3153.1
2592.77
5930.67
2615.89
2417.24
5514.97
2528.5
2301.48
4963.4
2313.13
2124.86
4188.64
1641.4
1681.15
3553.85
1048.18
1212.87
455.924
540.817
3825.24
-2566.84
24.1024
4627.54
-4030.87
-432.688
900.597
-3169.68
3627.92
-3714.21
926.639
7958.15
-5381.22
3789.8
7629.43
-5104.02
5207.11
5536.09
-4062.98
6433.98
4189.38
-2885.14
7104.2
3654.75
-1692.78
7171.96
3422.88
-352.297
7134.97
2964.58
990.964
6850.82
2575.51
2096.7
5984.87
2081.34
3478.89
5919.08
1681.02
5084.12
6192.23
1653.06
6329.41
5319.33
2047.98
7135.91
4501.09
2549.51
7571.88
3924.51
2818.01
7647.74
3098.42
2866.45
7432.94
2367.21
2757.99
7081.79
1991.44
2568.5
6669.61
1937.96
2396.95
6123.08
1881.25
2250.16
5408.35
1562.27
2015.23
4751.02
1217
1774.57
687.636
1397.49
3082.79
-2280.08
-204.206
1821.96
-2757.07
392.951
-1950.71
-1486.43
4527.63
-5214.36
1178.78
6589.39
-6712.01
2470.66
6173.5
-6478.17
2901.68
4950.55
-5447.2
3653.09
4353.19
-4169.62
4024.64
4340.75
-2787.73
3960.65
4404.36
-1208.47
3869.47
4192.34