/*--------------------------------*- C++ -*----------------------------------*\
  =========                 |
  \\      /  F ield         | OpenFOAM: The Open Source CFD Toolbox
   \\    /   O peration     | Website:  https://openfoam.org
    \\  /    A nd           | Version:  11
     \\/     M anipulation  |
\*---------------------------------------------------------------------------*/
FoamFile
{
    format      ascii;
    class       volVectorField;
    location    "15";
    object      U;
}
// * * * * * * * * * * * * * * * * * * * * * * * * * * * * * * * * * * * * * //

dimensions      [0 1 -1 0 0 0 0];

internalField   nonuniform List<vector> 
17196
(
(0.912587 0.0294274 0.0433949)
(0.64505 0.0812768 0.0489317)
(0.345538 0.155966 0.167747)
(-0.00994261 0.261516 0.262743)
(-1.35153 0.353591 -0.259457)
(-0.750518 -0.0146244 -0.156921)
(0.0851227 -0.14992 0.210469)
(0.514283 -0.137745 0.650607)
(0.674528 -0.1925 0.758799)
(0.587442 0.418376 -0.314569)
(0.988672 -0.0388691 -0.0277613)
(0.898799 -0.184246 -0.795658)
(1.30882 -0.348911 0.237595)
(1.05963 0.0563654 0.428464)
(0.627905 0.332448 0.625576)
(-0.0252922 0.361864 0.830862)
(-0.470393 0.399457 0.874835)
(-0.896939 0.475961 0.729844)
(-1.12646 0.394621 0.466729)
(-0.915284 0.185752 0.130563)
(-0.36729 0.0382009 -0.0194006)
(0.296637 0.0320034 0.128577)
(0.667364 0.0381748 0.313237)
(0.758728 0.0883273 0.53679)
(0.400857 0.279572 0.670567)
(0.983601 0.0552778 0.0453681)
(0.883603 0.144951 0.0662453)
(0.878377 0.282668 0.243424)
(0.67512 0.463457 0.60268)
(-0.620751 0.584299 0.452347)
(-1.08624 0.399584 0.0998678)
(-0.820873 0.310808 0.0362284)
(-0.258356 0.47675 0.720454)
(0.247976 0.403961 0.640447)
(0.376401 0.24945 0.606878)
(1.28997 -0.435976 0.740647)
(0.833084 -0.234748 0.384449)
(0.840554 -0.0525615 0.33598)
(0.636099 -0.181987 0.560402)
(0.112966 -0.266786 0.787061)
(-0.398114 -0.30632 0.856712)
(-0.672478 -0.29399 0.806837)
(-0.845317 -0.26794 0.69867)
(-0.875614 -0.377631 0.489792)
(-0.631278 -0.477698 0.237051)
(-0.346716 -0.398775 0.175128)
(0.0988514 -0.290386 0.185885)
(0.452721 -0.232723 0.203533)
(0.669376 -0.19672 0.27218)
(0.754247 0.23081 0.57925)
(0.96371 0.0542408 0.0420943)
(0.873952 0.138276 0.0476571)
(0.940492 0.29437 0.211815)
(0.779177 0.522303 0.573777)
(0.340531 0.632186 0.658731)
(-0.0311885 0.707741 0.552572)
(-0.9755 0.519773 0.629601)
(-0.623396 0.373995 0.935907)
(0.254314 0.368039 0.630585)
(0.557099 0.318383 0.361217)
(1.01392 -0.49292 1.37255)
(-0.143227 -0.272616 0.628963)
(0.189886 -0.385734 0.672568)
(0.0544771 -0.439138 0.773145)
(-0.334328 -0.483103 0.801244)
(-0.636567 -0.479113 0.722841)
(-0.76764 -0.445524 0.635407)
(-0.798043 -0.423472 0.583585)
(-0.728392 -0.552213 0.452611)
(-0.518545 -0.787749 0.227469)
(-0.328452 -0.784986 0.137682)
(0.0719722 -0.61789 0.100319)
(0.411427 -0.463886 0.0903433)
(0.648917 -0.368058 0.145105)
(0.868218 0.0788866 0.339383)
(0.959776 0.0491568 0.0405741)
(0.882181 0.128203 0.0354669)
(0.898829 0.2754 0.210868)
(0.632011 0.472865 0.452668)
(0.974133 0.496927 0.589325)
(0.534534 0.920061 0.711247)
(-1.30383 0.847188 0.841324)
(-0.721345 0.685783 0.606222)
(0.0081818 0.554438 0.316149)
(0.586252 0.377957 0.427399)
(0.71384 -0.236927 0.775591)
(-0.467467 -0.242329 0.468166)
(-0.302225 -0.467791 0.541412)
(-0.394489 -0.569029 0.63899)
(-0.692197 -0.618439 0.640463)
(-0.87763 -0.591926 0.5421)
(-0.958938 -0.560412 0.423027)
(-0.897625 -0.581458 0.36982)
(-0.749783 -0.753891 0.29454)
(-0.472693 -1.05766 0.136762)
(-0.233974 -1.12566 0.0808226)
(0.113787 -0.958321 0.0314574)
(0.434501 -0.734019 0.00973047)
(0.63551 -0.584212 0.0280378)
(0.884741 -0.069932 0.219673)
(0.955364 0.0457603 0.0413349)
(0.884545 0.119762 0.0285288)
(0.8915 0.273586 0.226448)
(0.583681 0.387453 0.320521)
(1.33249 0.439806 0.560857)
(0.226741 1.27693 0.901548)
(-1.57935 1.34972 0.771119)
(-0.655846 0.992973 0.270719)
(-0.0699971 0.732813 0.10954)
(0.563849 0.616085 0.532136)
(0.588112 0.057574 0.514325)
(-0.562193 -0.343993 0.159932)
(-0.709773 -0.446975 0.302621)
(-0.742461 -0.614572 0.402552)
(-1.01817 -0.699811 0.400007)
(-1.14633 -0.664074 0.283088)
(-1.17177 -0.638502 0.118927)
(-1.0263 -0.716615 0.0411631)
(-0.832032 -0.929832 -0.0114698)
(-0.527089 -1.24835 -0.0820463)
(-0.215323 -1.38595 -0.0551077)
(0.165604 -1.2077 -0.0547144)
(0.480496 -0.902963 -0.0677)
(0.636945 -0.744643 -0.109516)
(0.909935 -0.271255 0.0876768)
(0.953062 0.0442885 0.0412635)
(0.872219 0.105047 0.0289249)
(0.926575 0.259512 0.22065)
(0.60178 0.337081 0.257978)
(1.51379 0.513513 0.627982)
(-0.323938 1.61527 0.987329)
(-1.5568 1.71576 0.56738)
(-0.604564 1.24548 0.0917241)
(-0.0599814 0.929886 0.0124835)
(0.505328 0.883075 0.496512)
(0.862236 0.749388 1.06765)
(-0.891835 -0.15805 -0.0306672)
(-1.01288 -0.415024 0.0757235)
(-0.962221 -0.57066 0.224966)
(-1.20767 -0.643746 0.197154)
(-1.32016 -0.599688 0.0349299)
(-1.3183 -0.58789 -0.167383)
(-1.1206 -0.716852 -0.279602)
(-0.868528 -0.999366 -0.348284)
(-0.539704 -1.36198 -0.357545)
(-0.189781 -1.56901 -0.261461)
(0.248356 -1.40416 -0.198055)
(0.5805 -1.02786 -0.18406)
(0.743819 -0.766085 -0.226551)
(1.07351 -0.31343 -0.0828399)
(0.948619 0.0396572 0.0392495)
(0.872611 0.0878963 0.0421343)
(0.913279 0.222036 0.191374)
(0.662575 0.306735 0.272139)
(1.56435 0.640498 0.713691)
(-0.8738 1.96345 0.949554)
(-1.42633 1.95455 0.374702)
(-0.577321 1.46459 0.0102868)
(-0.0462887 1.12621 -0.00431105)
(0.4189 1.06038 0.377266)
(1.16604 1.28853 1.4516)
(-1.13549 0.622775 0.147997)
(-1.13699 -0.387026 -0.173687)
(-1.04039 -0.466538 0.00479692)
(-1.2932 -0.508258 -0.0489314)
(-1.45743 -0.440856 -0.233675)
(-1.46309 -0.452349 -0.444573)
(-1.23985 -0.624977 -0.59502)
(-0.902982 -0.955964 -0.692922)
(-0.491668 -1.37119 -0.666082)
(-0.0947309 -1.6399 -0.513938)
(0.350174 -1.54426 -0.388221)
(0.701761 -1.15749 -0.326524)
(0.870249 -0.780702 -0.311658)
(0.906636 -0.324596 -0.0837541)
(0.936739 0.0298609 0.0375937)
(0.882331 0.0728356 0.060251)
(0.820739 0.163762 0.166741)
(0.820947 0.244294 0.308111)
(1.35407 0.837934 0.770425)
(-1.23755 2.28306 0.820233)
(-1.27596 2.10306 0.234489)
(-0.574347 1.63576 -0.0108905)
(-0.0671542 1.30201 0.0198804)
(0.30829 1.15072 0.266352)
(1.2676 1.49468 1.45511)
(-0.909052 0.916372 0.233309)
(-1.10238 -0.421303 -0.346214)
(-1.0286 -0.306313 -0.231177)
(-1.31862 -0.223945 -0.295442)
(-1.57096 -0.168458 -0.476338)
(-1.65074 -0.225104 -0.684583)
(-1.46945 -0.448548 -0.857162)
(-0.990527 -0.773183 -0.998587)
(-0.429673 -1.23334 -0.969682)
(0.05598 -1.56574 -0.778219)
(0.436561 -1.54549 -0.573891)
(0.783142 -1.22184 -0.46149)
(0.812302 -0.880115 -0.460218)
(0.886553 -0.420088 -0.301242)
(0.924786 0.0165247 0.0407124)
(0.887688 0.062138 0.0731848)
(0.689514 0.106064 0.156835)
(0.829616 0.16298 0.339512)
(0.988402 1.04865 0.765161)
(-1.43195 2.53574 0.655141)
(-1.14565 2.20962 0.137752)
(-0.590251 1.77716 -0.0120293)
(-0.109177 1.47754 0.0317481)
(0.230606 1.25306 0.137292)
(1.21347 1.59128 1.14887)
(-0.377024 1.0756 0.381599)
(-1.19494 -0.108503 -0.408241)
(-1.02232 -0.0334381 -0.377625)
(-1.34653 0.216681 -0.449797)
(-1.58032 0.256222 -0.638054)
(-1.70208 0.205967 -0.871756)
(-1.5679 -0.0492062 -1.08059)
(-1.05041 -0.428917 -1.24162)
(-0.373201 -0.910035 -1.2225)
(0.221795 -1.29589 -1.0006)
(0.579794 -1.3713 -0.73122)
(0.788216 -1.14307 -0.545745)
(0.822646 -0.840925 -0.51308)
(0.907896 -0.4618 -0.381013)
(0.920866 0.00153192 0.0503532)
(0.868454 0.0624892 0.0813459)
(0.604335 0.0699936 0.145704)
(0.825063 0.109721 0.391765)
(0.62 1.26453 0.71674)
(-1.50492 2.7247 0.493062)
(-1.05483 2.31567 0.0607365)
(-0.61766 1.9201 -0.032941)
(-0.155904 1.65859 -0.0113885)
(0.196367 1.40005 -0.0258357)
(1.04417 1.63507 0.672085)
(0.249253 1.27823 0.481559)
(-1.11472 0.159125 -0.385319)
(-0.936749 0.235703 -0.383869)
(-1.34973 0.64842 -0.491415)
(-1.53043 0.735132 -0.735468)
(-1.53634 0.773294 -1.01945)
(-1.32969 0.585388 -1.25537)
(-0.908733 0.121182 -1.39749)
(-0.286511 -0.395836 -1.47223)
(0.351791 -0.836656 -1.14945)
(0.755857 -1.0115 -0.821286)
(0.814467 -0.921525 -0.572036)
(1.03516 -0.673602 -0.428403)
(0.014939 -0.147981 -0.359363)
(0.90962 -0.0135936 0.0604241)
(0.846852 0.070176 0.0845256)
(0.526879 0.0651414 0.130502)
(0.821555 0.0765512 0.467783)
(0.319147 1.46186 0.656284)
(-1.49437 2.8547 0.351238)
(-1.00043 2.43276 -0.008081)
(-0.646779 2.08083 -0.0846013)
(-0.203236 1.84484 -0.0961719)
(0.183665 1.57913 -0.183951)
(0.864298 1.67966 0.22354)
(0.697906 1.46175 0.396755)
(-0.716614 0.410087 -0.202523)
(-0.810738 0.430815 -0.314232)
(-1.24426 0.983503 -0.475776)
(-1.42416 1.14094 -0.760097)
(-1.33187 1.24452 -1.0771)
(-0.945838 1.1285 -1.29088)
(-0.358155 0.690322 -1.24781)
(-0.01157 0.143163 -1.34527)
(0.446112 -0.282159 -1.1754)
(0.84091 -0.517561 -0.843714)
(0.874127 -0.605455 -0.523347)
(0.944841 -0.456974 -0.341239)
(0.735682 -0.243639 -0.275646)
(0.895311 -0.0211726 0.0689051)
(0.818468 0.0659748 0.0779225)
(0.655833 0.0394814 0.168679)
(0.862189 0.0519333 0.536883)
(0.0983793 1.63388 0.603164)
(-1.43223 2.92975 0.24189)
(-0.975392 2.55512 -0.0642779)
(-0.675074 2.25464 -0.151885)
(-0.25112 2.02411 -0.193425)
(0.164429 1.75892 -0.307461)
(0.725175 1.74495 -0.10353)
(0.91163 1.60814 0.187716)
(-0.157326 0.694817 -0.010044)
(-0.68986 0.561407 -0.189723)
(-1.03018 1.25234 -0.412538)
(-1.20211 1.47205 -0.693387)
(-1.05632 1.61065 -0.999115)
(-0.574251 1.52779 -1.11925)
(0.0277458 1.15098 -0.827882)
(0.231763 0.641794 -0.847605)
(0.492848 0.224025 -0.910209)
(0.76984 -0.0550055 -0.689714)
(0.805468 -0.2638 -0.389388)
(0.786896 -0.306632 -0.17963)
(0.57017 -0.150543 -0.200184)
(0.880156 -0.0196115 0.0763972)
(0.79798 0.035844 0.072003)
(0.721552 -0.00213965 0.217168)
(0.861443 0.0420613 0.583033)
(-0.0645983 1.78062 0.563546)
(-1.34522 2.94754 0.175405)
(-0.975288 2.66943 -0.0993081)
(-0.700766 2.43209 -0.218371)
(-0.295933 2.19394 -0.286311)
(0.128349 1.92595 -0.395451)
(0.617346 1.83138 -0.308182)
(0.958431 1.72459 -0.0425474)
(0.367221 1.01081 0.0474093)
(-0.443544 0.661832 0.00584212)
(-0.778458 1.42057 -0.305922)
(-0.883799 1.71212 -0.561099)
(-0.72169 1.85347 -0.811202)
(-0.217075 1.77205 -0.83209)
(0.278075 1.47871 -0.409517)
(0.389114 1.05415 -0.324665)
(0.470326 0.612282 -0.420434)
(0.593467 0.283193 -0.345143)
(0.59155 0.0184763 -0.182801)
(0.55414 -0.178127 -0.0296504)
(0.422666 -0.190237 -0.0909747)
(0.871973 -0.0141596 0.0850126)
(0.78536 0.00270122 0.0565199)
(0.764718 -0.0546757 0.269362)
(0.806363 0.0180686 0.596205)
(-0.184275 1.87691 0.540796)
(-1.24876 2.89614 0.15916)
(-0.999304 2.75568 -0.105555)
(-0.728755 2.59611 -0.268285)
(-0.339683 2.35324 -0.365383)
(0.0775619 2.07405 -0.456633)
(0.522851 1.92694 -0.422774)
(0.920494 1.82204 -0.230011)
(0.751913 1.30266 -0.0134711)
(-0.0074513 0.838507 0.139638)
(-0.512375 1.44351 -0.150409)
(-0.530612 1.84825 -0.393089)
(-0.3613 1.96295 -0.565121)
(0.0731923 1.8754 -0.533117)
(0.456895 1.65904 -0.0746689)
(0.496646 1.35111 0.156055)
(0.448176 0.981815 0.0845484)
(0.453974 0.588073 0.0818432)
(0.431541 0.224188 0.110125)
(0.402054 -0.102186 0.187936)
(0.2613 -0.404853 0.0959184)
(0.874752 -0.0085393 0.0902459)
(0.781464 -0.0268249 0.0444524)
(0.75543 -0.0924866 0.296634)
(0.665027 -0.00467234 0.568713)
(-0.269966 1.90121 0.522385)
(-1.15671 2.77368 0.182371)
(-1.04546 2.79014 -0.0832052)
(-0.767474 2.72031 -0.287884)
(-0.391258 2.49314 -0.41692)
(0.0144775 2.20183 -0.492051)
(0.432954 2.02104 -0.474981)
(0.846555 1.89922 -0.355542)
(0.976234 1.52461 -0.11876)
(0.457775 1.03816 0.161198)
(-0.171776 1.35688 0.0180748)
(-0.208409 1.85928 -0.223149)
(-0.0458174 1.9771 -0.330716)
(0.266529 1.9037 -0.275214)
(0.534084 1.71273 0.179571)
(0.489199 1.48189 0.593061)
(0.333117 1.21706 0.609825)
(0.271209 0.787621 0.54971)
(0.130461 0.293835 0.477621)
(0.122556 -0.104812 0.467699)
(0.0290136 -0.441178 0.185649)
(0.888912 -0.00827632 0.0884593)
(0.771959 -0.042918 0.0511131)
(0.829116 -0.173215 0.344469)
(0.53627 -0.0281932 0.505503)
(-0.324742 1.84701 0.485444)
(-1.07575 2.58459 0.214307)
(-1.07204 2.72062 -0.0351466)
(-0.823224 2.77351 -0.270885)
(-0.459189 2.59205 -0.424009)
(-0.0612172 2.30225 -0.492542)
(0.343639 2.10034 -0.480957)
(0.759833 1.95186 -0.420497)
(1.08175 1.67855 -0.217921)
(0.841858 1.21862 0.113351)
(0.215088 1.24099 0.141822)
(0.0720327 1.70522 -0.0575581)
(0.203522 1.8592 -0.136466)
(0.409836 1.77536 -0.0778723)
(0.573355 1.55061 0.326221)
(0.428107 1.30096 0.85391)
(0.0970965 1.12776 1.01273)
(-0.0252179 0.829073 0.936853)
(-0.407166 0.361604 0.589892)
(-0.150032 -0.254538 0.139892)
(0.138907 -0.467152 -0.362905)
(0.894476 -0.0134548 0.0821625)
(0.77972 -0.0673441 0.0632531)
(0.908764 -0.31325 0.414123)
(0.425259 -0.00286426 0.429298)
(-0.368584 1.74142 0.420683)
(-1.0127 2.34153 0.231727)
(-1.0877 2.55728 0.021172)
(-0.909062 2.73797 -0.221203)
(-0.544759 2.6209 -0.380283)
(-0.147709 2.36307 -0.450946)
(0.256893 2.1562 -0.448963)
(0.677926 1.98021 -0.433045)
(1.11401 1.78141 -0.286188)
(1.11763 1.36231 0.0430661)
(0.595766 1.15396 0.208988)
(0.347169 1.4717 0.098693)
(0.409425 1.62583 0.0230576)
(0.527535 1.54857 0.0551619)
(0.609445 1.31951 0.354592)
(0.402558 1.0251 0.863273)
(-0.155692 0.881259 1.15258)
(-0.500918 0.605827 1.12272)
(-0.302854 -0.122847 0.141678)
(0.0259516 -0.0469668 -0.442712)
(0.285087 -0.309338 -0.55337)
(0.889203 -0.0241464 0.0716441)
(0.833362 -0.122939 0.0898005)
(0.967734 -0.475397 0.480894)
(0.346118 0.0799149 0.411235)
(-0.431234 1.61853 0.344048)
(-0.979485 2.06869 0.238135)
(-1.1089 2.32896 0.080315)
(-0.992028 2.59748 -0.139431)
(-0.647912 2.57074 -0.291327)
(-0.24068 2.36878 -0.370836)
(0.169301 2.17623 -0.384854)
(0.603343 1.98718 -0.400977)
(1.10743 1.84086 -0.3155)
(1.29371 1.45761 -0.0196608)
(0.930146 1.09869 0.227334)
(0.634325 1.22733 0.22317)
(0.606488 1.34163 0.155477)
(0.642246 1.28237 0.150429)
(0.657508 1.09537 0.332628)
(0.454681 0.807592 0.73058)
(-0.215693 0.629854 1.08067)
(-0.940785 0.357827 1.10259)
(-0.571844 -0.250515 0.126948)
(-0.379353 -0.0210338 -0.232303)
(0.350826 -0.15997 -0.227837)
(0.87541 -0.0419334 0.0667628)
(0.902324 -0.221251 0.111275)
(0.986074 -0.602455 0.494036)
(0.215406 0.172589 0.487478)
(-0.532981 1.45751 0.305326)
(-0.98701 1.78387 0.250831)
(-1.14972 2.07129 0.149386)
(-1.07471 2.39096 -0.031671)
(-0.769902 2.46042 -0.170355)
(-0.336392 2.31295 -0.260589)
(0.0859381 2.14267 -0.290466)
(0.537024 1.96379 -0.334919)
(1.07987 1.85418 -0.305839)
(1.38372 1.4882 -0.0580239)
(1.19103 1.044 0.2157)
(0.921893 1.00036 0.308317)
(0.821964 1.05716 0.266557)
(0.785918 1.01547 0.230634)
(0.741853 0.890897 0.314651)
(0.564923 0.666829 0.574651)
(0.00321567 0.459633 0.893685)
(-0.978309 0.257885 1.07984)
(-0.926072 -0.188088 0.406885)
(-0.639904 -0.0492532 -0.190239)
(0.475436 -0.312655 -0.514261)
(0.873167 -0.0746067 0.0683673)
(0.971777 -0.325893 0.10717)
(1.03404 -0.639008 0.436824)
(0.00675835 0.219116 0.636504)
(-0.66056 1.20348 0.358611)
(-1.02555 1.46886 0.305906)
(-1.21834 1.79042 0.24124)
(-1.16603 2.13341 0.0936479)
(-0.887572 2.26735 -0.025739)
(-0.446366 2.19366 -0.121955)
(0.00569069 2.04438 -0.170661)
(0.475229 1.90061 -0.24739)
(1.03534 1.8082 -0.257765)
(1.40171 1.43522 -0.0645815)
(1.36836 0.95256 0.187253)
(1.18291 0.789872 0.345975)
(1.05596 0.797624 0.350584)
(0.971336 0.773532 0.302996)
(0.884866 0.708381 0.317721)
(0.727473 0.567679 0.456101)
(0.33486 0.381403 0.683928)
(-0.517312 0.156469 0.941336)
(-0.953513 -0.162368 0.833993)
(-0.933734 -0.205388 0.490301)
(-1.03222 -0.247168 0.272909)
(0.898054 -0.127288 0.0642077)
(1.05461 -0.426793 0.0860268)
(1.1306 -0.575383 0.318944)
(-0.226045 0.193789 0.75534)
(-0.781247 0.833632 0.486798)
(-1.10305 1.10409 0.418928)
(-1.31673 1.46499 0.351303)
(-1.26495 1.81057 0.221836)
(-0.994249 1.9861 0.123041)
(-0.555406 1.96057 0.0405453)
(-0.0688083 1.86159 -0.0276451)
(0.422266 1.78122 -0.145991)
(0.969623 1.67876 -0.171475)
(1.36429 1.29077 -0.0430377)
(1.46244 0.805376 0.145568)
(1.38916 0.572754 0.331578)
(1.28062 0.545194 0.394344)
(1.17758 0.541584 0.360985)
(1.07824 0.531234 0.33593)
(0.944784 0.477994 0.386586)
(0.68236 0.356678 0.510066)
(0.088674 0.136865 0.711992)
(-0.455905 -0.109822 0.835747)
(-0.703097 -0.132009 0.76043)
(-0.783552 -0.19117 0.585184)
(0.946903 -0.202716 0.0476149)
(1.14805 -0.520736 0.0682519)
(1.25109 -0.475641 0.213793)
(-0.149966 0.0565449 0.709952)
(-0.872015 0.42069 0.598403)
(-1.22687 0.752921 0.525154)
(-1.42716 1.13366 0.430921)
(-1.34582 1.45851 0.319349)
(-1.06744 1.64197 0.252377)
(-0.635451 1.646 0.201026)
(-0.134682 1.5749 0.138735)
(0.35832 1.56528 -0.000324664)
(0.884775 1.45173 -0.0457401)
(1.29536 1.08072 0.00385333)
(1.47776 0.618643 0.0914864)
(1.50448 0.329078 0.27135)
(1.45167 0.268488 0.394815)
(1.36535 0.277468 0.39975)
(1.28185 0.311433 0.365076)
(1.1886 0.343304 0.36214)
(1.01829 0.313493 0.400902)
(0.624846 0.153742 0.510633)
(0.132124 -0.0580455 0.657502)
(-0.255128 -0.0997622 0.727323)
(-0.475085 -0.0889427 0.664946)
(1.02115 -0.271867 0.0220726)
(1.18331 -0.567362 0.056285)
(1.16478 -0.464712 0.195323)
(0.18931 -0.0831309 0.518566)
(-0.929364 0.20303 0.595048)
(-1.35243 0.495957 0.541204)
(-1.50431 0.822625 0.441642)
(-1.38225 1.09534 0.368846)
(-1.0898 1.24883 0.348346)
(-0.670336 1.26056 0.341621)
(-0.172628 1.19369 0.310527)
(0.298722 1.24585 0.16129)
(0.805592 1.12815 0.0888416)
(1.22247 0.801148 0.0484897)
(1.43675 0.40073 -0.00751346)
(1.48323 0.0480999 0.13735)
(1.48129 -0.0769913 0.33345)
(1.43401 -0.0828024 0.414933)
(1.38777 -0.0253399 0.413687)
(1.35126 0.0766603 0.392307)
(1.26625 0.140254 0.373206)
(1.02187 0.0670809 0.397541)
(0.645499 -0.0903946 0.483412)
(0.242869 -0.133034 0.564637)
(-0.0720754 -0.129685 0.56606)
(1.08488 -0.26336 -0.00573317)
(0.954581 -0.420066 0.0321156)
(0.4624 -0.252769 0.236524)
(-0.156237 0.0383821 0.359312)
(-1.13281 0.299485 0.437825)
(-1.51885 0.419431 0.413131)
(-1.57176 0.58984 0.357622)
(-1.38652 0.739442 0.349393)
(-1.05162 0.804963 0.388052)
(-0.633225 0.796287 0.433887)
(-0.1731 0.765692 0.43626)
(0.272855 0.889507 0.292535)
(0.741294 0.800272 0.197459)
(1.21866 0.614508 0.0810751)
(1.62268 0.432652 -0.101084)
(1.70831 0.128719 -0.0551405)
(1.58766 -0.0744035 0.137074)
(1.40314 -0.211866 0.304875)
(1.27243 -0.285003 0.395195)
(1.2167 -0.238767 0.410922)
(1.17223 -0.152091 0.377062)
(1.03609 -0.143348 0.348003)
(0.804834 -0.210759 0.368834)
(0.474492 -0.236522 0.414919)
(0.196816 -0.265592 0.418409)
(0.841792 -0.128846 -0.0194845)
(0.297604 -0.103649 -0.090802)
(-0.63371 0.469855 0.195601)
(-1.3876 0.732834 0.155996)
(-1.68326 0.629923 0.173722)
(-1.76921 0.484653 0.165819)
(-1.6459 0.357682 0.172792)
(-1.31886 0.246637 0.254377)
(-0.883273 0.132989 0.360072)
(-0.477282 0.0249641 0.426625)
(-0.125588 0.011833 0.445513)
(0.285434 0.179331 0.381813)
(0.696838 0.192413 0.324251)
(1.19192 0.0948819 0.207754)
(1.73102 0.00848005 0.114029)
(1.95898 -0.00943667 0.0707843)
(1.95442 0.0303585 0.0670947)
(1.73299 0.0768733 0.137251)
(1.36145 0.019614 0.22233)
(0.959927 -0.0925628 0.253758)
(0.667879 -0.15219 0.212354)
(0.440773 -0.173604 0.145371)
(0.182784 -0.201099 0.120344)
(-0.314911 -0.238689 0.154731)
(-0.979404 -0.296777 0.203932)
(1.0406 0.0271185 0.0546642)
(0.842153 0.0694144 0.0720049)
(0.690236 0.128477 0.13464)
(0.787951 0.0518629 0.372864)
(-0.413037 0.253699 -0.597201)
(0.15902 0.172614 -1.05367)
(0.212059 0.183775 -1.12425)
(0.038473 0.177239 -1.08141)
(0.391817 0.145618 -1.08971)
(-0.242912 0.212346 -1.34591)
(1.24194 -0.908535 1.24965)
(0.266077 -1.17217 0.799865)
(0.880536 -0.806158 0.916624)
(0.977891 -0.315299 1.31292)
(0.301506 0.184873 1.45124)
(-0.573291 0.332737 1.38351)
(-1.08389 0.228645 1.15058)
(-1.35797 0.0630766 0.835859)
(-1.39213 -0.17289 0.565353)
(-1.07887 -0.415234 0.410764)
(-0.529501 -0.517447 0.290707)
(0.0234413 -0.547712 0.224913)
(0.479939 -0.483811 0.228883)
(0.619672 -0.291524 0.225106)
(0.779681 -0.0336871 0.142976)
(1.09828 0.0425363 0.0534909)
(1.07955 0.132953 0.0679849)
(1.22897 0.214848 0.175757)
(1.46362 0.311831 0.524042)
(0.796578 0.272845 0.120466)
(0.380285 0.23928 -0.786868)
(0.0385322 0.446395 -1.2762)
(0.175057 0.498858 -1.26819)
(0.901532 0.431408 -1.33355)
(0.941475 0.142606 -1.05032)
(1.64648 -0.947241 1.69425)
(-0.0653513 -1.24636 1.54577)
(-0.0214666 -1.09304 1.42372)
(-0.119541 -0.811092 1.42926)
(-0.695626 -0.572639 1.30045)
(-1.24413 -0.439114 0.962611)
(-1.57583 -0.461564 0.637865)
(-1.71813 -0.592005 0.437968)
(-1.65102 -0.820535 0.339822)
(-1.37386 -0.998744 0.350114)
(-0.915895 -0.973172 0.417486)
(-0.316036 -0.804706 0.339686)
(0.202886 -0.61528 0.218213)
(0.440163 -0.353418 0.0504226)
(0.753133 -0.0143944 0.0275473)
(1.06418 0.0391968 0.0514028)
(1.01177 0.121917 0.0239309)
(1.23578 0.210789 0.180536)
(1.46225 0.400238 0.521106)
(1.30753 0.427903 0.274122)
(0.940359 0.71185 -0.210703)
(0.274475 0.946605 -0.883422)
(0.337674 0.8578 -1.21345)
(0.958515 0.601633 -1.32443)
(1.28462 0.492626 -1.20011)
(1.53433 -0.452522 1.0741)
(-0.234673 -1.11909 1.22724)
(-0.544729 -1.28145 1.29514)
(-0.767079 -0.881858 1.15774)
(-1.23261 -0.551021 0.965529)
(-1.5175 -0.396759 0.693358)
(-1.65377 -0.455299 0.465749)
(-1.71242 -0.674121 0.293856)
(-1.63537 -1.00998 0.209036)
(-1.44264 -1.2913 0.274618)
(-1.07258 -1.29473 0.426795)
(-0.484154 -1.07702 0.39561)
(0.103643 -0.877223 0.267853)
(0.22877 -0.516756 0.020931)
(0.567717 0.0534449 0.0132128)
(1.05424 0.0417832 0.0485767)
(0.990148 0.106785 -0.00838427)
(1.21766 0.226657 0.203005)
(1.27412 0.425118 0.429444)
(1.39728 0.285061 0.186868)
(1.41727 0.901241 0.271437)
(0.75378 1.34094 -0.490521)
(0.684674 1.12683 -1.14977)
(0.936987 0.629439 -1.27544)
(1.32437 0.460382 -1.1442)
(1.70916 0.0780616 -0.356687)
(0.267986 -0.717772 0.864784)
(-0.7859 -0.954476 0.978625)
(-1.07637 -0.651305 0.852567)
(-1.47685 -0.393088 0.681235)
(-1.66548 -0.285301 0.437963)
(-1.77307 -0.394475 0.217054)
(-1.7785 -0.697504 0.053465)
(-1.66879 -1.14348 -0.0289626)
(-1.5024 -1.56304 0.0624977)
(-1.18056 -1.66325 0.288424)
(-0.615264 -1.3808 0.352661)
(-0.00559934 -1.10276 0.300049)
(-0.0756638 -0.735992 -0.00729207)
(0.240133 0.0773563 -0.063239)
(1.05267 0.0444643 0.0450226)
(0.982437 0.102845 -0.0271951)
(1.25269 0.261318 0.228178)
(1.18845 0.401982 0.312967)
(1.26849 0.127754 -0.0303328)
(1.49432 0.983511 0.407311)
(1.08562 1.59728 -0.257834)
(0.981092 1.31829 -1.032)
(0.972946 0.665595 -1.22918)
(1.1181 0.407693 -1.09279)
(1.81568 0.0720584 -1.06544)
(0.614599 -0.395922 0.496199)
(-0.830369 -0.612273 0.573803)
(-1.2776 -0.416548 0.415799)
(-1.71872 -0.199125 0.264572)
(-1.89296 -0.138325 0.0424172)
(-1.93286 -0.299859 -0.179033)
(-1.8501 -0.654983 -0.30749)
(-1.73842 -1.16707 -0.349108)
(-1.59385 -1.73419 -0.241723)
(-1.31435 -1.9674 0.0430286)
(-0.788139 -1.65836 0.210474)
(-0.187474 -1.20539 0.259028)
(-0.339558 -0.792694 -0.0118795)
(-0.0483397 0.197456 -0.102981)
(1.05212 0.0478058 0.042651)
(0.966733 0.0934263 -0.034496)
(1.30987 0.278026 0.225821)
(1.1419 0.397962 0.229798)
(1.20031 0.155416 -0.0995474)
(1.43193 0.98362 0.336644)
(1.27906 1.67089 -0.164395)
(1.17699 1.43525 -0.904469)
(1.02543 0.794062 -1.19855)
(0.908555 0.455141 -1.08083)
(1.58618 0.0192165 -1.08617)
(0.0956622 -0.0365625 0.387972)
(-0.853321 -0.328152 0.232614)
(-1.46039 -0.228084 0.0734513)
(-1.83826 -0.103534 -0.141294)
(-1.96171 -0.0503785 -0.360392)
(-1.95227 -0.167872 -0.588742)
(-1.81069 -0.509464 -0.706434)
(-1.68074 -1.06692 -0.735887)
(-1.55061 -1.75518 -0.610129)
(-1.36182 -2.16588 -0.294252)
(-0.917721 -1.92304 0.00237718)
(-0.335768 -1.33479 0.181496)
(-0.381794 -0.804191 0.0875377)
(-0.223437 0.0168723 -0.14184)
(1.04948 0.050629 0.0441299)
(0.962924 0.0757169 -0.0304948)
(1.33094 0.276939 0.197358)
(1.13104 0.401923 0.208416)
(1.30456 0.281906 -0.00743694)
(1.40993 0.983351 0.227764)
(1.39884 1.6312 -0.185703)
(1.28899 1.48751 -0.828515)
(1.05688 0.932413 -1.15677)
(0.76912 0.547905 -1.06061)
(1.37064 0.263302 -0.58202)
(-0.258439 0.481592 0.5643)
(-0.908329 -0.053649 -0.0134557)
(-1.5259 0.0353508 -0.280999)
(-1.84729 0.0673193 -0.510589)
(-2.01121 0.150893 -0.700055)
(-2.01978 0.0864143 -0.957436)
(-1.84863 -0.262443 -1.11266)
(-1.63106 -0.865298 -1.18094)
(-1.41833 -1.67978 -1.05864)
(-1.25819 -2.23101 -0.706495)
(-0.906624 -2.12874 -0.313812)
(-0.382269 -1.54476 0.0878679)
(-0.205002 -0.99426 0.251478)
(0.665927 -0.00946713 0.0493534)
(1.03966 0.0477508 0.0493852)
(0.988518 0.0627861 -0.0134936)
(1.2792 0.245376 0.156265)
(1.32292 0.398548 0.260114)
(1.5294 0.457987 0.175179)
(1.50262 1.03043 0.166692)
(1.50322 1.56083 -0.275209)
(1.33023 1.50031 -0.819712)
(1.04321 1.05276 -1.12001)
(0.689928 0.686821 -1.06152)
(1.01494 0.457117 -0.438508)
(-0.113007 0.812002 0.650031)
(-1.00151 0.194382 0.0840327)
(-1.47079 0.256158 -0.434744)
(-1.74532 0.337971 -0.71182)
(-2.04276 0.459471 -0.914369)
(-2.14767 0.409806 -1.2481)
(-2.01261 0.0105402 -1.47791)
(-1.64403 -0.641027 -1.62148)
(-1.26865 -1.54725 -1.49298)
(-1.02259 -2.22335 -1.1362)
(-0.75747 -2.22608 -0.689318)
(-0.365056 -1.77303 -0.0919962)
(-0.0572919 -1.14406 0.309721)
(0.258079 -0.496199 0.0277436)
(1.02949 0.0381565 0.0579496)
(1.02492 0.0586936 0.0105495)
(1.1952 0.196251 0.117703)
(1.50171 0.326252 0.329858)
(1.74625 0.621326 0.385908)
(1.68337 1.14051 0.164992)
(1.62083 1.52809 -0.377457)
(1.33297 1.51567 -0.843912)
(0.999546 1.18006 -1.09714)
(0.673125 0.89974 -1.10302)
(0.725418 0.710797 -0.536681)
(0.311744 1.04093 0.583378)
(-0.988274 0.547199 0.174188)
(-1.34301 0.393801 -0.373322)
(-1.58809 0.636381 -0.720882)
(-1.98541 0.845249 -1.0017)
(-2.17797 0.849733 -1.42209)
(-2.0813 0.371349 -1.77876)
(-1.53208 -0.434608 -2.00909)
(-1.05111 -1.40814 -1.86137)
(-0.721523 -2.12821 -1.49595)
(-0.459451 -2.22428 -1.02645)
(-0.226905 -1.91798 -0.360672)
(0.0180091 -1.35966 0.261136)
(0.474208 -0.678137 0.163741)
(1.02827 0.0276587 0.0711592)
(1.03965 0.0588948 0.0347853)
(1.1377 0.156363 0.0926937)
(1.63694 0.20443 0.403667)
(1.89228 0.737589 0.57347)
(1.865 1.29222 0.223298)
(1.74487 1.57245 -0.447356)
(1.33952 1.56047 -0.870769)
(0.953378 1.31369 -1.07658)
(0.700674 1.13657 -1.14419)
(0.657259 1.01916 -0.713904)
(0.683957 1.21922 0.339526)
(-0.736295 0.827888 0.226208)
(-1.17565 0.580914 -0.152904)
(-1.44318 0.8845 -0.596008)
(-1.8507 1.20591 -1.00087)
(-2.02422 1.24202 -1.52132)
(-1.82331 0.691294 -1.98213)
(-1.11356 -0.322919 -2.26023)
(-0.657216 -1.32221 -2.09148)
(-0.358942 -1.99993 -1.7372)
(-0.089259 -2.13618 -1.2397)
(0.00834076 -1.89399 -0.617107)
(-0.00779759 -1.47066 0.166178)
(0.329935 -0.753224 0.270552)
(1.03458 0.018284 0.0854363)
(1.05091 0.0632384 0.0595996)
(1.0877 0.132501 0.0878572)
(1.7119 0.0775121 0.485125)
(1.95465 0.799869 0.72662)
(1.98585 1.456 0.329666)
(1.86236 1.69135 -0.452754)
(1.38317 1.6466 -0.882414)
(0.931767 1.44607 -1.04429)
(0.730855 1.33894 -1.13485)
(0.709584 1.27568 -0.855443)
(0.864994 1.36956 0.0388871)
(-0.269336 1.04541 0.293469)
(-0.996287 0.817182 0.065955)
(-1.23817 1.07565 -0.402728)
(-1.60437 1.46964 -0.923924)
(-1.66155 1.44089 -1.4978)
(-1.31944 0.722604 -1.95592)
(-0.530884 -0.420433 -2.18607)
(-0.156045 -1.32435 -1.98812)
(0.0161746 -1.87687 -1.72018)
(0.240146 -1.99576 -1.27701)
(0.272806 -1.75155 -0.695272)
(0.0566351 -1.35531 0.0555457)
(0.237842 -0.748825 0.294996)
(1.04165 0.00817426 0.0987061)
(1.06014 0.0678834 0.0758999)
(1.08044 0.112191 0.118417)
(1.75426 -0.0327879 0.585333)
(1.95887 0.825049 0.850818)
(2.02321 1.61304 0.464837)
(1.95319 1.8577 -0.391931)
(1.46945 1.77793 -0.870665)
(0.959077 1.58006 -1.00272)
(0.751177 1.49466 -1.06971)
(0.769407 1.46271 -0.913974)
(0.952451 1.52541 -0.198735)
(0.259041 1.26239 0.307156)
(-0.706599 0.992303 0.267293)
(-0.908379 1.28544 -0.187364)
(-1.22692 1.62488 -0.765914)
(-1.1808 1.49952 -1.28352)
(-0.761462 0.702455 -1.61029)
(-0.0971555 -0.448098 -1.71651)
(0.303467 -1.31158 -1.50825)
(0.321941 -1.76399 -1.36819)
(0.423504 -1.82355 -1.04265)
(0.401741 -1.54888 -0.534254)
(0.144532 -1.17112 0.0460187)
(0.26554 -0.767237 0.314295)
(1.05026 -0.00217419 0.112295)
(1.05464 0.0662984 0.0719875)
(1.18398 0.0633374 0.199418)
(1.79016 -0.121617 0.707323)
(1.9152 0.838497 0.958818)
(1.96169 1.75828 0.60638)
(1.98477 2.04079 -0.277984)
(1.57351 1.94788 -0.830059)
(1.04873 1.7273 -0.962492)
(0.783942 1.62625 -0.976322)
(0.797522 1.6023 -0.892769)
(0.999404 1.62346 -0.378833)
(0.701408 1.44563 0.214507)
(-0.252847 1.15258 0.42656)
(-0.493734 1.44876 0.0420209)
(-0.765125 1.69585 -0.548468)
(-0.676724 1.46649 -0.920559)
(-0.134002 0.66914 -1.04531)
(0.205726 -0.291661 -1.05548)
(0.617021 -1.27631 -0.908124)
(0.53241 -1.6186 -0.830434)
(0.441929 -1.58545 -0.562926)
(0.316413 -1.28831 -0.153102)
(0.141217 -0.978696 0.183721)
(0.295044 -0.778946 0.372501)
(1.05482 -0.0105275 0.128003)
(1.03873 0.0511986 0.041248)
(1.3185 -0.0253611 0.323001)
(1.77843 -0.200605 0.838233)
(1.80704 0.849168 1.06669)
(1.78576 1.88291 0.736268)
(1.91914 2.206 -0.114589)
(1.64256 2.13377 -0.744986)
(1.18024 1.89177 -0.92295)
(0.861781 1.75819 -0.89167)
(0.817057 1.72256 -0.821278)
(1.00601 1.69638 -0.500111)
(0.976726 1.58844 0.0660371)
(0.260367 1.33874 0.473633)
(-0.107144 1.525 0.256109)
(-0.299508 1.73435 -0.288519)
(-0.161582 1.36484 -0.510828)
(0.417832 0.560769 -0.501795)
(0.536732 -0.055021 -0.448945)
(0.86753 -1.14119 -0.400388)
(0.650373 -1.37302 -0.378078)
(0.359045 -1.24126 -0.128986)
(0.10789 -0.933686 0.21247)
(0.113105 -0.759278 0.35627)
(0.399514 -0.766706 0.336423)
(1.04776 -0.0137216 0.134582)
(1.02357 0.0152913 0.016331)
(1.36078 -0.0831971 0.42366)
(1.68911 -0.23565 0.928715)
(1.61666 0.862674 1.15889)
(1.51159 1.96057 0.865235)
(1.73831 2.33592 0.0992865)
(1.62171 2.30366 -0.590254)
(1.29415 2.06886 -0.857919)
(0.983697 1.9076 -0.832586)
(0.863 1.84257 -0.738694)
(0.994176 1.7606 -0.549916)
(1.1157 1.67562 -0.0877226)
(0.705353 1.51199 0.41082)
(0.286853 1.57433 0.396331)
(0.123803 1.68616 -0.0313611)
(0.278427 1.24914 -0.144538)
(0.730891 0.491927 -0.0636468)
(0.798298 0.123442 0.0883731)
(0.984725 -0.740861 0.0779778)
(0.676123 -0.930531 -0.00839972)
(0.285907 -0.821306 0.079604)