/*--------------------------------*- C++ -*----------------------------------*\
  =========                 |
  \\      /  F ield         | OpenFOAM: The Open Source CFD Toolbox
   \\    /   O peration     | Website:  https://openfoam.org
    \\  /    A nd           | Version:  11
     \\/     M anipulation  |
\*---------------------------------------------------------------------------*/
FoamFile
{
    format      ascii;
    class       volScalarField;
    location    "20";
    object      k;
}
// * * * * * * * * * * * * * * * * * * * * * * * * * * * * * * * * * * * * * //

dimensions      [0 2 -2 0 0 0 0];

internalField   nonuniform List<scalar> 
17196
(
0.00932686
0.00830288
0.00739963
0.00670495
0.00594915
0.00530122
0.00473693
0.0041914
0.00367369
0.00310435
0.00263829
0.00292486
0.00332544
0.00454653
0.00704806
0.00885246
0.0101632
0.00945608
0.00920956
0.00924776
0.00708673
0.00450343
0.00812603
0.0151632
0.0134554
0.00969368
0.009166
0.00841303
0.00803675
0.00751789
0.00688375
0.00645758
0.00535657
0.0041421
0.0034004
0.00300631
0.00290787
0.00300163
0.00460215
0.00724473
0.0084213
0.00900301
0.00949301
0.0096931
0.00944459
0.00788145
0.00545425
0.0258225
0.0367368
0.0322102
0.00968935
0.00918262
0.00849225
0.00807839
0.00748175
0.0069788
0.00667712
0.00610965
0.00477957
0.00383631
0.00365531
0.00333563
0.00354064
0.00502
0.00565147
0.00870875
0.00917445
0.00983838
0.00973728
0.0094489
0.00808031
0.0100335
0.0422386
0.0555422
0.0438617
0.00965874
0.00921814
0.00849753
0.0080599
0.00758248
0.00710039
0.00688537
0.00636201
0.00518361
0.00460343
0.00416902
0.00396888
0.0039345
0.00401923
0.00708255
0.00954206
0.0123191
0.0129229
0.0105088
0.0152235
0.0149479
0.0208017
0.0606333
0.0752601
0.0619782
0.00966837
0.00920583
0.00845777
0.00803979
0.00767311
0.00732183
0.00690628
0.00655305
0.00549216
0.00520131
0.00556454
0.00551731
0.00536795
0.00527308
0.0112252
0.0145875
0.0165609
0.0150568
0.0138362
0.0172993
0.0292295
0.0406434
0.0748176
0.0916202
0.0792841
0.00965537
0.0092142
0.00841516
0.00800223
0.00780153
0.00727548
0.00704929
0.00666596
0.00606067
0.00554516
0.0063072
0.00720362
0.00686765
0.00958049
0.0164106
0.0170249
0.0169788
0.016601
0.0169837
0.022619
0.0320755
0.0618262
0.0852125
0.0971798
0.0938513
0.00967113
0.00919823
0.00835557
0.00799654
0.00776324
0.00732389
0.0070711
0.00679246
0.00620631
0.00647591
0.00636128
0.00669546
0.00920671
0.0132195
0.0172921
0.017153
0.0175193
0.0177276
0.0223168
0.0322275
0.0540117
0.0777025
0.0987685
0.110973
0.10245
0.00965478
0.00920224
0.00834768
0.00808404
0.00766545
0.00753358
0.00714321
0.00691768
0.00624739
0.0067531
0.00773834
0.007015
0.0105477
0.0156794
0.0190878
0.0183008
0.0191396
0.0179839
0.0304087
0.0468424
0.0743972
0.099182
0.108738
0.111955
0.104447
0.00970798
0.00914333
0.00836241
0.00794948
0.0075116
0.00723448
0.00699621
0.00675206
0.00634389
0.00658302
0.00725305
0.00747272
0.010306
0.0154514
0.019138
0.0223792
0.0254084
0.0246741
0.0421605
0.0645793
0.0972844
0.112452
0.118844
0.112839
0.104055
0.00971576
0.00910116
0.00841308
0.00814064
0.00766099
0.0074
0.00717375
0.00703726
0.00735759
0.00690821
0.0074324
0.00834736
0.0166882
0.0202117
0.0234413
0.0233478
0.0268615
0.0343829
0.0595593
0.0854396
0.108154
0.121145
0.121771
0.116447
0.100664
0.0097525
0.0090643
0.00833487
0.0082319
0.00754067
0.00763246
0.00760483
0.00753051
0.00843361
0.00804805
0.00745012
0.0092273
0.0190594
0.0256863
0.0237234
0.0234574
0.022869
0.0518146
0.0845624
0.119953
0.112983
0.114697
0.114688
0.104361
0.0961974
0.0097733
0.00900051
0.00843119
0.0081752
0.0076332
0.00752096
0.00897965
0.00980461
0.0101148
0.00920201
0.00844115
0.00856219
0.0193339
0.026169
0.0236011
0.0242095
0.0265062
0.0742042
0.108057
0.134123
0.101946
0.0983652
0.098598
0.0970005
0.0922312
0.00982322
0.00894572
0.00842903
0.0081599
0.0074848
0.0075391
0.0101139
0.0112797
0.0117526
0.0106356
0.00878292
0.00993343
0.0237177
0.0258044
0.0287277
0.0260428
0.0329948
0.0788554
0.11946
0.140864
0.114152
0.0946893
0.0822815
0.0779895
0.0680155
0.00978451
0.00894412
0.00847085
0.00818968
0.00736377
0.00758914
0.0122842
0.0132087
0.0132897
0.0114034
0.00903715
0.0116758
0.0192403
0.0227437
0.0254991
0.0290351
0.0402868
0.0846039
0.119529
0.13556
0.110029
0.0786345
0.0601332
0.0461983
0.0434758
0.00975481
0.00900376
0.0084228
0.00814142
0.00707401
0.00654637
0.00978497
0.0150174
0.013854
0.0115777
0.00924
0.0105384
0.0225907
0.0239421
0.0299882
0.0300804
0.0377782
0.0888387
0.109533
0.115793
0.0934095
0.0597297
0.0382454
0.0263244
0.0184667
0.00970023
0.00904369
0.00837688
0.00801923
0.00663336
0.0069434
0.00908071
0.0148628
0.0146166
0.0117454
0.00977197
0.013859
0.0215087
0.0269082
0.0309781
0.0279227
0.0375536
0.0877888
0.0966412
0.0977244
0.0731084
0.0434322
0.0251577
0.015518
0.0124974
0.00975973
0.00896654
0.00846457
0.00754271
0.00619664
0.00712621
0.00943219
0.0156719
0.0136144
0.0119236
0.00999064
0.0127846
0.0224559
0.0281284
0.0296857
0.0284858
0.046158
0.0784954
0.0884962
0.083731
0.0599246
0.0346432
0.0171946
0.0110892
0.00982949
0.00972225
0.00897995
0.00831497
0.0071763
0.00626676
0.00725542
0.0119469
0.016155
0.0140155
0.0121778
0.0102649
0.0158458
0.0259624
0.0287047
0.0281478
0.0262149
0.0347219
0.0763368
0.0804918
0.0669002
0.0475007
0.0266812
0.0121048
0.00921323
0.00931324
0.00969822
0.00903563
0.0082736
0.00696981
0.00622006
0.00700179
0.0115262
0.0156097
0.0142246
0.0122506
0.0114363
0.0146078
0.0228671
0.0273055
0.0270702
0.0277232
0.0313686
0.0697959
0.0667399
0.0499117
0.0346031
0.016202
0.00962658
0.00857456
0.00938866
0.00972629
0.00898353
0.00849517
0.00714421
0.00646499
0.00703858
0.0107059
0.0151694
0.0132443
0.012001
0.0123785
0.0159917
0.0234833
0.0265311
0.0256895
0.0264764
0.0386439
0.060702
0.053739
0.0371677
0.0214551
0.00995898
0.00797543
0.00745222
0.00892977
0.00972368
0.00901499
0.00852631
0.00738356
0.00686168
0.00517513
0.00764866
0.0138473
0.0133498
0.0116121
0.0111275
0.0131859
0.0226309
0.0248573
0.0243404
0.0276789
0.0359754
0.047259
0.0418265
0.0301165
0.0144913
0.00962582
0.0103776
0.0165355
0.0102857
0.00973452
0.0090401
0.00847597
0.00751771
0.00666743
0.00446992
0.00469986
0.00836112
0.0100805
0.0112022
0.0104191
0.0121234
0.0203697
0.0235119
0.0236637
0.0248594
0.0324574
0.0384148
0.0349667
0.0261697
0.0153705
0.0141782
0.0111793
0.0205744
0.0137859
0.0097613
0.0089999
0.00814365
0.00744349
0.00598953
0.00433848
0.00368184
0.0042798
0.00524363
0.00962397
0.0104631
0.012519
0.0180691
0.0208489
0.0222807
0.0236244
0.025542
0.0282535
0.0282371
0.0238224
0.0201076
0.0166934
0.0131403
0.00356883
0.0381761
0.00977781
0.00890624
0.00813366
0.00690402
0.00420876
0.00348957
0.00384654
0.0036198
0.00315263
0.00406062
0.00721935
0.00850231
0.0146452
0.0176208
0.0185461
0.0218374
0.024156
0.0247953
0.0240165
0.0222582
0.0200152
0.0169141
0.0141644
0.00776878
0.0246216
0.00939714
0.00799193
0.00684036
0.00427766
0.00377194
0.00341836
0.00507342
0.00535039
0.00499518
0.00359437
0.00380069
0.00614914
0.00858584
0.00996042
0.0106498
0.0124226
0.0142195
0.0170351
0.0168547
0.0154681
0.0140798
0.0121756
0.0109107
0.00570573
0.0130096
0.00941625
0.00856362
0.00780095
0.00718858
0.00653749
0.00591008
0.00533529
0.00487868
0.00454458
0.00402566
0.00343472
0.00403104
0.00520888
0.00765155
0.013766
0.0205438
0.0205191
0.0200172
0.0191832
0.0197967
0.0171177
0.0116109
0.0127331
0.013467
0.0108079
0.00328469
0.00141938
0.000900097
0.00094409
0.00104921
0.00115079
0.00127758
0.00215954
0.00283944
0.00311851
0.00375933
0.00632792
0.00788773
0.0148761
0.0252856
0.0278549
0.0279023
0.0275682
0.0280157
0.0274576
0.0217577
0.0253182
0.0473405
0.0430444
0.0211955
0.00325875
0.00128867
0.000747215
0.000451996
0.00038563
0.000452732
0.000771862
0.000841304
0.00150271
0.00300767
0.0050573
0.00651198
0.00960156
0.0112945
0.0205991
0.0255534
0.0255626
0.0225927
0.0257321
0.035312
0.040741
0.0698852
0.0899612
0.0870644
0.0443186
0.00325647
0.00128913
0.000745656
0.00043164
0.000440339
0.000581234
0.000656856
0.000661538
0.00126569
0.00313665
0.00528212
0.00910944
0.0120753
0.0168932
0.0336837
0.0379525
0.0346111
0.0294045
0.0336015
0.0647808
0.0983344
0.113932
0.125378
0.13214
0.0862065
0.00325544
0.00131842
0.00068821
0.000514509
0.000369341
0.000427603
0.000386799
0.000838246
0.00105766
0.00300966
0.00527916
0.00640739
0.00733939
0.0219173
0.0412626
0.0462826
0.0400279
0.0438743
0.0517896
0.0872483
0.126043
0.134902
0.157882
0.162949
0.142285
0.00326051
0.00131477
0.000712216
0.000435551
0.000390294
0.000367173
0.00054909
0.00172421
0.00142235
0.00265494
0.00381147
0.0046442
0.0066985
0.0225378
0.0446311
0.0503644
0.0469283
0.0525875
0.0673213
0.0913754
0.137059
0.164019
0.180615
0.182552
0.172568
0.00326241
0.00134395
0.000643173
0.000506754
0.000420756
0.000607729
0.00146922
0.00176853
0.0015102
0.00166842
0.00542877
0.00756529
0.00864321
0.0301598
0.053071
0.0610156
0.0576272
0.0598073
0.0737811
0.108227
0.171626
0.193835
0.202008
0.194211
0.183376
0.00326903
0.00134874
0.000643128
0.000672527
0.000440348
0.000932969
0.00180364
0.00191233
0.00166741
0.00178701
0.00540658
0.00731394
0.0110994
0.0380995
0.0616444
0.0687289
0.0667964
0.0627829
0.0795475
0.136391
0.201114
0.217402
0.210458
0.196556
0.183286
0.00327877
0.00134968
0.000644909
0.000484089
0.000982122
0.00104877
0.00262676
0.00385078
0.00318717
0.00267452
0.00306894
0.00512552
0.0185248
0.0440982
0.0640177
0.0719225
0.0703322
0.0696467
0.107216
0.175941
0.228516
0.232433
0.212951
0.20197
0.181401
0.00328804
0.00135082
0.000649251
0.000462721
0.00115917
0.00131627
0.0029637
0.0055313
0.00540788
0.00507856
0.00402246
0.00769451
0.0271887
0.0497587
0.0663153
0.0704375
0.0751572
0.0934115
0.154394
0.220809
0.254318
0.238833
0.217317
0.203482
0.17465
0.00330082
0.00135226
0.000651741
0.000466552
0.00128591
0.00140495
0.00373493
0.00770613
0.00766667
0.00723178
0.00548195
0.0099236
0.0316715
0.0522476
0.0655769
0.0734295
0.0835927
0.121317
0.195564
0.255029
0.271846
0.242514
0.222707
0.199461
0.171619
0.00331428
0.00135796
0.000659606
0.000582385
0.00145918
0.0019754
0.00526416
0.0107372
0.0104801
0.0102099
0.00725226
0.0100465
0.0296056
0.0523515
0.0647873
0.0805911
0.107872
0.156599
0.212396
0.26288
0.274282
0.244562
0.228064
0.207469
0.168054
0.00333082
0.00136098
0.000668971
0.000784399
0.00163771
0.00267551
0.00823617
0.0118891
0.0125239
0.0112906
0.0087264
0.0122518
0.0401797
0.0567583
0.0679791
0.0951265
0.132071
0.175266
0.221089
0.254043
0.263205
0.233671
0.209662
0.174874
0.117004
0.00334713
0.00134116
0.000681221
0.000830559
0.00218087
0.00383169
0.0105328
0.0151763
0.0156501
0.0126305
0.010101
0.0159047
0.0392127
0.0580807
0.073027
0.111904
0.147791
0.186681
0.210653
0.231581
0.235318
0.194191
0.144172
0.0857265
0.0487938
0.00335827
0.0013259
0.000740199
0.000960942
0.00320183
0.005224
0.0119318
0.0179709
0.0184516
0.0148017
0.0115461
0.013445
0.0462798
0.0639045
0.0767433
0.108222
0.156861
0.184191
0.19189
0.18215
0.172972
0.122497
0.0696109
0.0377477
0.015308
0.00336817
0.00130079
0.000814244
0.00114357
0.00434077
0.00808515
0.0148716
0.0216671
0.0219166
0.0166752
0.0130709
0.0141711
0.0422157
0.0643401
0.0724783
0.104289
0.155647
0.164561
0.143457
0.122168
0.0983551
0.0593725
0.0402768
0.0173631
0.00626072
0.00340269
0.00116076
0.000864123
0.00117823
0.00657067
0.0119967
0.017717
0.0242312
0.024944
0.0185067
0.0139241
0.0166201
0.0456138
0.0669702
0.0719198
0.114796
0.146109
0.126628
0.0904803
0.0639164
0.0405722
0.0339169
0.0245771
0.0177948
0.00551079
0.00337501
0.00138085
0.000720338
0.00113054
0.00996897
0.0158355
0.0196996
0.0269507
0.0280314
0.0212435
0.0148785
0.0171248
0.0410295
0.0638412
0.0727571
0.111899
0.125432
0.0960588
0.058923
0.032195
0.0201826
0.0181117
0.0210199
0.0189508
0.00673433
0.00334495
0.0015854
0.000745122
0.000925521
0.00918089
0.0149336
0.0178065
0.0291818
0.0312465
0.0238868
0.015961
0.0161803
0.0330059
0.056224
0.0688093
0.0996808
0.107499
0.0795926
0.0436281
0.0240963
0.015364
0.0111966
0.0124514
0.0148912
0.00709998
0.00331903
0.00172837
0.000877118
0.000826238
0.0103342
0.0163806
0.0200352
0.0289103
0.0329735
0.0270265
0.018251
0.0170131
0.0284604
0.0519694
0.0620931
0.0861754
0.0929157
0.0640252
0.0359588
0.0221948
0.0160375
0.0139061
0.0196185
0.00658656
0.00626415
0.00335623
0.00152592
0.00149752
0.00178547
0.007713
0.0174099
0.0252177
0.0299469
0.0337003
0.0278755
0.0192287
0.0168976
0.0225572
0.0429738
0.0547448
0.0714094
0.0764693
0.0580657
0.0362999
0.023377
0.016551
0.0234173
0.0435325
0.134299
0.0121883
0.0033248
0.00163132
0.00148693
0.00222442
0.00867846
0.0145413
0.0392174
0.0299612
0.0339182
0.0276002
0.0214085
0.0181829
0.0213954
0.0374679
0.0512375
0.063459
0.066024
0.0573166
0.0388805
0.0265451
0.0200558
0.0280222
0.000538449
0.303671
0.0127937
0.00328642
0.00175255
0.00166994
0.00238628
0.00558743
0.00687064
0.0251568
0.032271
0.0274853
0.0281825
0.0217083
0.018232
0.0201856
0.0317262
0.0458381
0.0594075
0.0631103
0.0585257
0.0465085
0.0353146
0.0355606
0.0321304
0.0368687
0.0487297
0.0529633
0.00359089
0.00189388
0.00187155
0.00294857
0.00555049
0.00883527
0.0241296
0.0335551
0.0215661
0.0202232
0.0202383
0.0185534
0.0197186
0.0258077
0.037631
0.0514261
0.0608949
0.061962
0.0579292
0.0548439
0.0510502
0.0359939
0.0242601
0.0167953
0.0356159
0.00931991
0.00783625
0.00711019
0.00546773
0.00712268
0.00836702
0.0140101
0.0124589
0.00605824
0.00724302
0.00732716
0.0111154
0.0116614
0.0133477
0.0138436
0.0255523
0.0362425
0.0395666
0.0404823
0.0379676
0.0331975
0.0276405
0.0215167
0.012238
0.0212366
0.00943787
0.00851438
0.00776121
0.00706363
0.00636653
0.00565345
0.00507379
0.00471876
0.00424151
0.00370923
0.00289897
0.002582
0.00519152
0.00682828
0.0145237
0.0262973
0.0282666
0.0282467
0.0272889
0.0285393
0.0248839
0.0190219
0.0151723
0.0122878
0.0115655
0.00319071
0.00139586
0.000810826
0.000621198
0.000505472
0.000547999
0.000605589
0.000736706
0.00124107
0.00258422
0.00324133
0.00726061
0.0108963
0.0126199
0.0359979
0.0502629
0.0521333
0.0524125
0.0535239
0.0554289
0.0456902
0.0412154
0.0454794
0.0293968
0.024538
0.00319016
0.00124991
0.000683143
0.000454096
0.00031928
0.000256523
0.000193549
0.000177419
0.000235853
0.000789132
0.00198374
0.00664056
0.00851904
0.0141488
0.0403923
0.052366
0.0497023
0.0448592
0.0592244
0.0639584
0.0690708
0.076896
0.0963943
0.0771517
0.0456267
0.00319008
0.00124355
0.000685545
0.000445001
0.000319819
0.000250639
0.000226437
0.000176495
0.00024892
0.000460823
0.00106447
0.00511425
0.00927632
0.0189766
0.0559928
0.0684277
0.0662109
0.0617025
0.0804948
0.107816
0.133617
0.142635
0.150028
0.132588
0.0948431
0.0031895
0.00124283
0.000680169
0.000452751
0.0003047
0.00023745
0.000204761
0.000167364
0.000239645
0.00038336
0.000976748
0.00344636
0.00747377
0.0276233
0.0786171
0.0873901
0.0834894
0.0811934
0.110277
0.150886
0.17148
0.191212
0.192092
0.184683
0.158731
0.00318863
0.00123811
0.000682865
0.000447032
0.000306433
0.000215205
0.000190547
0.000167964
0.000213567
0.000371815
0.00046647
0.00380076
0.0101463
0.0473809
0.0840354
0.0968131
0.0904578
0.0932484
0.117321
0.159616
0.195216
0.216427
0.225604
0.220049
0.197736
0.00318744
0.00123858
0.00067543
0.000450702
0.000310918
0.000260274
0.000196894
0.000218344
0.000213309
0.000290512
0.000708923
0.00625618
0.0156253
0.0563812
0.0967934
0.113188
0.103826
0.101054
0.123623
0.173133
0.220041
0.241656
0.245555
0.232629
0.215842
0.00318625
0.00124066
0.000671719
0.000456596
0.000310576
0.000254117
0.000196107
0.000187418
0.000321755
0.000259092
0.00186951
0.00624657
0.0182534
0.0672814
0.0985181
0.120777
0.107585
0.117425
0.150961
0.198074
0.241111
0.257618
0.246568
0.230312
0.219574
0.00318846
0.00123524
0.000688935
0.000433689
0.000281445
0.000247911
0.00029821
0.000225921
0.000345383
0.000318336
0.000743377
0.0106114
0.0264682
0.0722687
0.0994303
0.117603
0.115963
0.1517
0.206001
0.245917
0.261722
0.260428
0.242002
0.235406
0.226311
0.00318946
0.00123851
0.000694389
0.000436135
0.000284186
0.000411578
0.000349782
0.000353126
0.000393125
0.000422056
0.00052251
0.0166996
0.0367945
0.073225
0.102926
0.115701
0.123168
0.176543
0.24725
0.272736
0.275624
0.260546
0.248557
0.245553
0.227386
0.00319115
0.00124465
0.000697211
0.000436922
0.000285798
0.000470636
0.000471051
0.000488912
0.000733008
0.000747727
0.00115225
0.0141955
0.0438597
0.0759718
0.106381
0.116711
0.128208
0.180028
0.235314
0.270906
0.272268
0.261898
0.254266
0.24863
0.226854
0.00319281
0.00125297
0.000701465
0.000444322
0.000293611
0.000514543
0.000659643
0.000828955
0.000694375
0.000835136
0.00127806
0.0165082
0.0500414
0.0803882
0.109686
0.118843
0.139323
0.177834
0.212715
0.256684
0.266458
0.260612
0.257783
0.254115
0.227191
0.00319275
0.00125997
0.000693774
0.000447311
0.000317403
0.000670382
0.00129577
0.00145152
0.000975782
0.000987709
0.00116453
0.0106746
0.0536263
0.0818712
0.110933
0.12864
0.149732
0.172049
0.195519
0.243251
0.261702
0.261111
0.25589
0.241273
0.215047
0.00319433
0.00126275
0.000706181
0.000411229
0.000357001
0.00102628
0.00268908
0.00259757
0.00179142
0.00138665
0.00178679
0.0103617
0.0582364
0.0848863
0.111348
0.138807
0.161049
0.171134
0.182054
0.224936
0.242617
0.24187
0.225878
0.196152
0.196342
0.00319384
0.00127368
0.000682349
0.000415458
0.000400898
0.002042
0.00501821
0.00464101
0.00274489
0.00197894
0.00270115
0.0107309
0.0566893
0.0856555
0.107589
0.143057
0.167738
0.165273
0.161645
0.185399
0.206044
0.19541
0.166349
0.145545
0.130858
0.00319304
0.00127684
0.000670862
0.000435419
0.000692938
0.00438684
0.00925935
0.00878787
0.00443229
0.00274404
0.00280393
0.0120818
0.0558097
0.0850711
0.110456
0.146714
0.165661
0.143605
0.134567
0.131781
0.155356
0.164094
0.127112
0.10856
0.0770597
0.00319386
0.00127695
0.000659996
0.000463136
0.00141608
0.00925826
0.0160736
0.0146579
0.00802159
0.00379917
0.00345893
0.00878641
0.0516103
0.0879536
0.105288
0.151241
0.14298
0.101073
0.0937762
0.0964756
0.109746
0.131609
0.119417
0.0981337
0.0769523
0.00319014
0.00129878
0.000607622
0.000498117
0.00346801
0.0181701
0.025582
0.0237529
0.0135461
0.00588493
0.00413484
0.0071684
0.0377492
0.0830676
0.105615
0.139226
0.114179
0.0682722
0.0524435
0.052789
0.0612654
0.0931903
0.0925738
0.10544
0.104701
0.00319084
0.00130651
0.000613085
0.000536692
0.00578322
0.0291855
0.0360325
0.0313427
0.0231675
0.00988302
0.00575631
0.00596783
0.0239381
0.0733102
0.103657
0.123122
0.0938534
0.0509493
0.0347389
0.031251
0.0362749
0.0565023
0.0724315
0.093059
0.0933034
0.00319361
0.00130924
0.000675784
0.000815087
0.00726027
0.034782
0.0395417
0.0364123
0.0294061
0.0156992
0.0082855
0.00739522
0.0182336
0.0602487
0.0915716
0.10609
0.0869465
0.0469004
0.0297595
0.0256494
0.030217
0.0500353
0.0611551
0.0816763
0.0803572
0.00322818
0.00114607
0.00098394
0.00113642
0.00520412
0.0325436
0.0379472
0.0368888
0.036954
0.0203489
0.012913
0.00952513
0.0128105
0.0462358
0.0882631
0.101667
0.0821736
0.0473659
0.0320401
0.0263849
0.0392802
0.0589534
0.0726098
0.0971677
0.102743
0.00322663
0.00114348
0.00128656
0.00133471
0.00314943
0.0352789
0.0437793
0.0316254
0.036717
0.0241179
0.019375
0.0157483
0.0162778
0.0322365
0.0724974
0.0989302
0.0883666
0.0603417
0.0382415
0.0303843
0.0464688
0.0656692
0.0638478
0.0811767
0.136843
0.00324814
0.00115221
0.00114496
0.00129891
0.00241858
0.0116101
0.0467173
0.0291468
0.0321692
0.0257765
0.0220427
0.0193525
0.0201861
0.0278505
0.0547954
0.0799488
0.0875799
0.0813133
0.0691961
0.0696935
0.0769979
0.0772426
0.0665787
0.0453415
0.0786636
0.0038346
0.00136238
0.00128197
0.00541347
0.00553694
0.0177967
0.0421773
0.0318031
0.0296311
0.031124
0.0282075
0.0244013
0.0276974
0.0292685
0.0452561
0.0670436
0.0781394
0.0839231
0.0843891
0.0878377
0.0891911
0.0698387
0.0459197
0.0308549
0.0463245
0.00938912
0.00718923
0.00657673
0.00577708
0.00715273
0.0147519
0.0240209
0.0184936
0.0178139
0.01774
0.0164207
0.0139173
0.0133996
0.0155091
0.0207896
0.0346297
0.0445577
0.0511713
0.0531356
0.0506828
0.0422392
0.036291
0.0305967
0.0225033
0.0212043
0.00942577
0.0085016
0.00773473
0.00703677
0.00641606
0.00584695
0.00533743
0.0047468
0.00405666
0.00334194
0.00299093
0.00487088
0.0124734
0.0189385
0.0287067
0.0472248
0.0515254
0.0502771
0.0464585
0.0394214
0.0324685
0.0244729
0.0170317
0.0170338
0.0244444
0.00319503
0.00141543
0.000728824
0.000695652
0.00075798
0.000806514
0.000982714
0.00142068
0.00232463
0.00286457
0.00367989
0.0133406
0.0239721
0.0341085
0.0580623
0.0888926
0.0953364
0.0949602
0.0919803
0.0811026
0.0632057
0.0491388
0.0405295
0.0444237
0.05212
0.00318976
0.00124503
0.000687755
0.000442739
0.000348028
0.000262806
0.000236829
0.000293261
0.000541429
0.00108299
0.0028588
0.0134607
0.0210653
0.0309368
0.0630438
0.0898627
0.0930605
0.0885123
0.0864438
0.0896481
0.0832213
0.0774223
0.0673775
0.0672741
0.0755654
0.00318912
0.00124219
0.000680925
0.000447476
0.000323934
0.000263309
0.000203196
0.000178558
0.000284933
0.000476322
0.00240749
0.00958594
0.017726
0.0309468
0.0782022
0.106116
0.105218
0.0894139
0.098428
0.123352
0.129138
0.137508
0.124994
0.120229
0.132884
0.00318724
0.00123774
0.000676959
0.000450375
0.000320835
0.000265322
0.0002092
0.00016279
0.000233143
0.000260308
0.00185946
0.0088524
0.0215032
0.0438594
0.103489
0.130367
0.139324
0.115671
0.119121
0.161491
0.165706
0.178111
0.187066
0.176266
0.174088
0.00318656
0.00123582
0.000675717
0.00045136
0.000321699
0.000266559
0.000209875
0.000161596
0.000208013
0.000207076
0.000689042
0.0100819
0.0304373
0.0609893
0.129239
0.152205
0.156747
0.132612
0.141699
0.188107
0.213216
0.218608
0.240258
0.252939
0.221592
0.00318823
0.00123718
0.000683964
0.000445348
0.000331432
0.000263259
0.000218213
0.00016584
0.000161341
0.000195222
0.0020298
0.0160059
0.034907
0.0826974
0.137237
0.169594
0.15638
0.167357
0.187343
0.222604
0.250555
0.277492
0.30139
0.301157
0.264314
0.00319001
0.00124214
0.00068869
0.000443522
0.000338916
0.000258865
0.000225701
0.000171668
0.000159925
0.000183636
0.00274762
0.0206377
0.0460891
0.09755
0.13771
0.169845
0.160932
0.204007
0.244888
0.26278
0.277143
0.309156
0.322275
0.301625
0.274769
0.00319098
0.00124324
0.000688394
0.000446625
0.000336372
0.000270194
0.000225846
0.000176895
0.000176642
0.000408815
0.00353813
0.0304985
0.0606519
0.110035
0.146423
0.175967
0.172201
0.212441
0.282799
0.298774
0.294376
0.304999
0.295362
0.28071
0.260673
0.00318996
0.00124384
0.000685575
0.000453632
0.000328773
0.000277357
0.000232095
0.000188155
0.000196763
0.000456676
0.00665538
0.0391378
0.0760057
0.120548
0.1595
0.184364
0.179049
0.200034
0.260239
0.295181
0.289288
0.283352
0.269195
0.263662
0.244429
0.00318871
0.00123886
0.000682583
0.000450948
0.00033909
0.000270344
0.000224232
0.000244482
0.000291468
0.000498661
0.00771876
0.0448492
0.0889478
0.130343
0.172622
0.189887
0.18387
0.192208
0.226796
0.269995
0.271405
0.271153
0.257906
0.256025
0.236243
0.00318625
0.00123724
0.000674367
0.000462998
0.000328216
0.000245741
0.000230896
0.000405999
0.000470885
0.000802286
0.00359342
0.050711
0.100158
0.138761
0.180405
0.195236
0.184441
0.179395
0.203622
0.249303
0.262491
0.259707
0.257793
0.259078
0.234788
0.00318611
0.00123125
0.000675842
0.000467932
0.000307426
0.00026876
0.000418436
0.000523318
0.00109873
0.00124727
0.00439739
0.0457622
0.102873
0.140334
0.177816
0.191321
0.174791
0.162845
0.188345
0.238455
0.259273
0.261892
0.259435
0.257446
0.224805
0.00318598
0.00123085
0.000678536
0.000460698
0.000304623
0.000312663
0.000411393
0.00131563
0.00178744
0.00207206
0.00493659
0.0569649
0.107112
0.142819
0.178797
0.194496
0.161724
0.144525
0.172499
0.225594
0.254999
0.261018
0.246696
0.238538
0.199992
0.00318823
0.00123726
0.000678772
0.000453075
0.000318571
0.000408148
0.000745256
0.000807223
0.0019205
0.00235692
0.0105076
0.0467774
0.113227
0.146855
0.180734
0.191139
0.147115
0.126209
0.14627
0.197665
0.22692
0.232205
0.213392
0.202349
0.170348
0.00318968
0.001243
0.000687157
0.000444173
0.000375495
0.000650457
0.00166982
0.00124961
0.00154227
0.00158864
0.00922656
0.0480037
0.105423
0.141351
0.178507
0.180603
0.133598
0.106159
0.116509
0.158988
0.177588
0.182303
0.168633
0.163792
0.138921
0.00318901
0.00125678
0.000639228
0.000549004
0.000591835
0.00138128
0.00460188
0.00357129
0.00190321
0.0017083
0.00598681
0.0338065
0.10128
0.140688
0.178761
0.172443
0.114097
0.0836414
0.0881421
0.128405
0.137935
0.141511
0.134936
0.134555
0.117987
0.00318748
0.00128608
0.000610744
0.00127664
0.00104082
0.00452441
0.0134849
0.00986361
0.00459131
0.00236553
0.00402302
0.0191892
0.0728686
0.125407
0.170354
0.154676
0.0950161
0.0643994
0.0620379
0.100976
0.118366
0.122307
0.115644
0.117096
0.101908
0.003201
0.00125958
0.00066753
0.00261221
0.00255032
0.0108459
0.0269048
0.021266
0.0110628
0.00451381
0.00422978
0.0119565
0.0462915
0.0973417
0.16086
0.146719
0.0846829
0.0481348
0.0446696
0.0749619
0.100636
0.110811
0.114972
0.114219
0.0933808
0.00321876
0.00114303
0.00165163
0.00532395
0.00450168
0.0150145
0.0354488
0.0317358
0.0191451
0.00958382
0.00557815
0.00762592
0.0279868
0.067939
0.134667
0.143224
0.0908764
0.0437678
0.0373897
0.0606695
0.086421
0.10189
0.110696
0.113727
0.0944839
0.0032253
0.00113855
0.00503109
0.00662415
0.0060079
0.0181919
0.0452056
0.0435892
0.0358938
0.0180688
0.00930537
0.00902114
0.016212
0.0424574
0.0977774
0.131829
0.105922
0.0592656
0.0424857
0.0533339
0.0841496
0.0989462
0.104373
0.105755
0.099137
0.00322033
0.00119035
0.00702363
0.00740401
0.010178
0.0419201
0.068812
0.0499436
0.0415214
0.0283214
0.0173185
0.0115698
0.0150726
0.0299885
0.0663155
0.101101
0.106158
0.0858036
0.0669258
0.062723
0.0889517
0.10083
0.0968356
0.0911999
0.0994731
0.0032353
0.00122796
0.00415761
0.0163342
0.0253218
0.0546145
0.0575528
0.0449816
0.034213
0.0275915
0.0256669
0.0187194
0.0193153
0.0272171
0.0466559
0.0734538
0.0857199
0.0864283
0.0835378
0.08865
0.101353
0.100379
0.0877844
0.0780256
0.068066
0.00389107
0.00179317
0.00506706
0.0162826
0.0379425
0.0608114
0.0463421
0.0361307
0.0347306
0.0347417
0.0380124
0.0314469
0.0296907
0.03131
0.0439046
0.0633501
0.0737886
0.0780532
0.0853267
0.0916319
0.0914458
0.0801805
0.0640764
0.050796
0.0398297
0.00923444
0.00734787
0.00651003
0.0148695
0.0260891
0.0308668
0.0220345
0.0194127
0.0187914
0.0231921
0.0233844
0.0183902
0.0197487
0.0209557
0.0264853
0.0382754
0.043425
0.044371
0.046336
0.0467806
0.0426691
0.0381053
0.0340352
0.0298743
0.0246072
0.00942359
0.00849866
0.00769952
0.00708777
0.0064781
0.0058429
0.00526637
0.00470377
0.00400868
0.00361894
0.00364504
0.0121955
0.0269986
0.0359481
0.0511959
0.0767545
0.0833914
0.0790291
0.065717
0.0519695
0.0433359
0.0361117
0.0295031
0.0403717
0.0474307
0.00321953
0.0014058
0.000745538
0.000813288
0.000961265
0.0009713
0.000832802
0.00155062
0.00185539
0.00182575
0.00575247
0.0303347
0.0521388
0.069215
0.105011
0.135451
0.138809
0.14014
0.127898
0.0972204
0.0767037
0.0668432
0.0691487
0.0913851
0.0972447
0.00319123
0.00125366
0.000692653
0.000460098
0.0003549
0.000267673
0.000219838
0.000355915
0.000567117
0.000882591
0.00510438
0.0298888
0.0486274
0.0668141
0.110825
0.132526
0.138621
0.136019
0.132438
0.120358
0.100106
0.0888822
0.0946638
0.122861
0.141277
0.00319044
0.00124781
0.000690352
0.000450584
0.000330489
0.000263165
0.000198779
0.000194182
0.000285144
0.000454291
0.00667045
0.0241781
0.0434313
0.0704068
0.115045
0.143019
0.148747
0.1373
0.133517
0.131074
0.125553
0.119739
0.135432
0.161631
0.190298
0.00318941
0.00124877
0.000687384
0.000453761
0.000325791
0.000261817
0.000213667
0.00016884
0.000163521
0.000204311
0.00584745
0.023975
0.0482467
0.0823418
0.132078
0.170841
0.181318
0.161302
0.151117
0.163278
0.173153
0.181544
0.187927
0.188787
0.198776
0.00319147
0.00125307
0.000692262
0.000452318
0.000329511
0.000263568
0.000215285
0.000163476
0.0001517
0.000183918
0.00495411
0.0277251
0.0579681
0.0959206
0.154136
0.188512
0.198783
0.181921
0.186582
0.195066
0.204615
0.231067
0.248328
0.223792
0.215228
0.00319427
0.00126114
0.000696484
0.000454262
0.000335089
0.000265622
0.000220823
0.000166849
0.000194734
0.000660478
0.0084781
0.0350685
0.0673822
0.111544
0.166892
0.200723
0.195757
0.215799
0.239637
0.243521
0.247177
0.281494
0.318884
0.321282
0.267852
0.00319598
0.00126495
0.000697485
0.00045485
0.000341354
0.000271009
0.00021739
0.00016956
0.000182577
0.000691695
0.0123876
0.0444634
0.0811781
0.127884
0.173517
0.203664
0.199935
0.227929
0.282629
0.293027
0.306217
0.339207
0.370473
0.353901
0.299516
0.00319479
0.00126284
0.000694348
0.000459858
0.000344555
0.000272972
0.000216031
0.000207278
0.00032845
0.00379292
0.0235869
0.0583197
0.097051
0.14432
0.181908
0.201366
0.205012
0.222507
0.279068
0.313641
0.328066
0.356802
0.35357
0.324013
0.289344
0.00319481
0.0012638
0.000699192
0.000463272
0.00034819
0.000266445
0.000235653
0.000329192
0.000537001
0.00663629
0.0374304
0.0747119
0.115613
0.160763
0.195827
0.207746
0.210744
0.216589
0.251265
0.302925
0.326926
0.332249
0.305901
0.282294
0.257831
0.00319541
0.00126641
0.00070421
0.000463069
0.000357181
0.000266931
0.000300848
0.00122342
0.00181712
0.00667287
0.0491102
0.090284
0.134883
0.17615
0.209919
0.220299
0.225832
0.218418
0.238334
0.28579
0.301568
0.293153
0.273972
0.259804
0.237797
0.00319565
0.00127428
0.0007028
0.000477986
0.000322123
0.000325566
0.000926038
0.00383619
0.00424878
0.00975322
0.0482224
0.103214
0.148628
0.187218
0.223998
0.244591
0.237755
0.219999
0.234123
0.263901
0.270398
0.264975
0.257785
0.251784
0.223935
0.00319673
0.00126561
0.000722281
0.000444431
0.000359698
0.000725626
0.00543732
0.0081354
0.013677
0.0160114
0.04726
0.113584
0.159216
0.195944
0.229852
0.254949
0.244567
0.2046
0.226188
0.252304
0.261716
0.258492
0.255078
0.248017
0.21811
0.00319555
0.0012621
0.000725786
0.000406824
0.000514254
0.00138756
0.012148
0.0153857
0.0237456
0.0228895
0.0495793
0.120542
0.165211
0.201302
0.236113
0.255253
0.219292
0.169702
0.195647
0.244304
0.261095
0.264097
0.247098
0.23243
0.203882
0.0031885
0.00129696
0.000608747
0.000492825
0.00126648
0.00299103
0.0120821
0.0128349
0.0196249
0.020665
0.0519982
0.112863
0.163989
0.202684
0.237464
0.246411
0.190266
0.127518
0.145195
0.205466