/*--------------------------------*- C++ -*----------------------------------*\
  =========                 |
  \\      /  F ield         | OpenFOAM: The Open Source CFD Toolbox
   \\    /   O peration     | Website:  https://openfoam.org
    \\  /    A nd           | Version:  11
     \\/     M anipulation  |
\*---------------------------------------------------------------------------*/
FoamFile
{
    format      ascii;
    class       volScalarField;
    location    "20";
    object      nut;
}
// * * * * * * * * * * * * * * * * * * * * * * * * * * * * * * * * * * * * * //

dimensions      [0 2 -1 0 0 0 0];

internalField   nonuniform List<scalar> 
17196
(
0.104866
0.0946094
0.0855706
0.0763998
0.0675447
0.0607991
0.0547194
0.0514892
0.0518181
0.0496131
0.0467627
0.0521972
0.0548801
0.0659517
0.104564
0.129307
0.134234
0.122458
0.119266
0.13763
0.132406
0.107485
0.233219
0.418526
0.457887
0.237272
0.225563
0.200426
0.178518
0.164003
0.15857
0.147549
0.110662
0.0821884
0.072489
0.063747
0.0551532
0.0520507
0.0978415
0.201393
0.165891
0.16421
0.18601
0.181198
0.181186
0.187683
0.171218
0.937395
1.36636
1.94986
0.237927
0.22881
0.206765
0.186454
0.171299
0.165545
0.157463
0.132397
0.101801
0.0834084
0.0771487
0.0703405
0.0850014
0.123099
0.129396
0.156765
0.158887
0.18465
0.194817
0.205966
0.220027
0.377197
1.47096
1.94337
2.09836
0.237385
0.22999
0.206234
0.184335
0.174632
0.171802
0.150812
0.13299
0.111377
0.101275
0.0899079
0.0869168
0.0847267
0.101504
0.128728
0.166245
0.198927
0.22352
0.214876
0.375097
0.410252
0.73365
1.83041
2.2538
2.46515
0.23764
0.229809
0.20396
0.18243
0.177314
0.175667
0.152617
0.13287
0.116417
0.113332
0.126172
0.129585
0.124735
0.123866
0.218021
0.255441
0.278206
0.256501
0.28941
0.41024
0.775279
1.20986
2.1038
2.49892
2.56885
0.237131
0.229794
0.202084
0.182218
0.178791
0.169125
0.166336
0.145142
0.129338
0.115648
0.140652
0.16452
0.160739
0.244736
0.319217
0.308182
0.317717
0.297054
0.321003
0.587834
1.03287
1.70622
2.27309
2.52536
2.77137
0.237194
0.229328
0.200067
0.181396
0.176232
0.165824
0.168199
0.157023
0.134571
0.134487
0.141293
0.14318
0.211609
0.382033
0.406767
0.342394
0.340295
0.320112
0.503636
1.06139
1.52929
2.00908
2.60259
2.91867
2.8727
0.236579
0.22993
0.199494
0.181049
0.171924
0.168067
0.163934
0.168557
0.141886
0.149481
0.176988
0.154208
0.25902
0.505765
0.554365
0.415075
0.414561
0.400991
1.04043
1.43744
2.06706
2.60739
3.07108
2.96469
2.69976
0.237874
0.229335
0.198912
0.17477
0.165666
0.159367
0.152499
0.163471
0.154753
0.156417
0.166059
0.170269
0.27411
0.533794
0.555278
0.548799
0.576103
0.759935
1.35123
1.8787
2.67317
3.02769
3.36355
2.88343
2.68771
0.238176
0.229194
0.198018
0.17493
0.165425
0.157709
0.143596
0.157464
0.189425
0.169002
0.16935
0.197261
0.449155
0.624309
0.673661
0.581552
0.615279
1.14798
1.76309
2.41464
3.02827
3.46982
3.37738
3.06087
2.71923
0.239197
0.228533
0.193893
0.174865
0.160536
0.15283
0.141205
0.15817
0.221498
0.196134
0.171431
0.219694
0.490675
0.711451
0.662635
0.591387
0.590353
1.5584
2.35718
3.35911
3.39358
3.4961
3.12026
2.77637
2.73073
0.239494
0.226065
0.193902
0.172338
0.159032
0.141273
0.159288
0.204261
0.262673
0.21923
0.195432
0.200976
0.477381
0.702382
0.562187
0.686919
0.728377
2.107
2.83513
3.42034
2.80128
2.6649
2.53452
2.50471
2.64596
0.240305
0.223802
0.191926
0.169968
0.152706
0.136394
0.177091
0.241436
0.291841
0.244789
0.2022
0.230269
0.575485
0.686456
0.758861
0.792376
0.857349
1.90906
2.70302
2.89817
2.51575
2.29221
2.01091
1.90868
1.98726
0.238913
0.222982
0.191152
0.167494
0.148888
0.138702
0.221587
0.297434
0.309028
0.252573
0.205014
0.269661
0.472661
0.618132
1.04606
0.903597
1.00386
1.85579
2.46783
2.55014
2.14892
1.71649
1.39702
1.09737
1.22108
0.237991
0.225678
0.188556
0.164297
0.14693
0.127672
0.191955
0.354291
0.296965
0.245705
0.20558
0.245108
0.574913
0.694806
1.17737
0.911743
0.910839
1.8464
2.19522
2.08947
1.70606
1.21823
0.850607
0.568002
0.400943
0.23596
0.228471
0.185486
0.160746
0.145593
0.149187
0.197929
0.338856
0.287723
0.24064
0.215537
0.328905
0.569631
0.794851
1.03388
0.773748
0.862372
1.73363
1.89179
1.7495
1.30156
0.846824
0.548267
0.325468
0.298802
0.236195
0.230283
0.184916
0.152054
0.143552
0.162284
0.216164
0.319934
0.251563
0.240956
0.222432
0.314153
0.618779
0.832552
0.901044
0.74935
1.01198
1.46085
1.64261
1.48305
1.07564
0.668558
0.384776
0.252
0.233222
0.233022
0.23716
0.181092
0.145904
0.149577
0.169152
0.268823
0.297511
0.254435
0.25135
0.236735
0.411376
0.748025
0.859505
0.827106
0.682471
0.7407
1.37461
1.44238
1.15038
0.816787
0.484254
0.264661
0.217196
0.159286
0.229469
0.240943
0.185301
0.132828
0.126456
0.170182
0.248951
0.275374
0.267104
0.269121
0.281175
0.412121
0.69809
0.841923
0.804616
0.733406
0.667576
1.25753
1.20885
0.845856
0.566944
0.271837
0.180226
0.125871
0.116239
0.229031
0.233475
0.196504
0.130714
0.110968
0.122527
0.204137
0.269353
0.262704
0.285379
0.332597
0.501806
0.769654
0.85382
0.781778
0.709474
0.849127
1.1138
1.01607
0.665771
0.377869
0.191785
0.158451
0.0995051
0.0412618
0.229882
0.223234
0.188868
0.128852
0.134352
0.0893732
0.130365
0.276105
0.285451
0.297932
0.324614
0.45288
0.807116
0.840027
0.753237
0.735474
0.828029
0.896451
0.810267
0.582386
0.272567
0.170391
0.226864
0.161667
0.0273972
0.225266
0.22946
0.192043
0.131784
0.133544
0.114302
0.0862501
0.17461
0.233968
0.306692
0.315661
0.442188
0.804442
0.834698
0.71701
0.626988
0.70883
0.696955
0.613608
0.470891
0.275902
0.216215
0.159568
0.191004
0.0339137
0.222537
0.228192
0.187384
0.133615
0.113773
0.103324
0.131707
0.100474
0.117432
0.25556
0.326681
0.503308
0.823777
0.821296
0.677757
0.562129
0.497349
0.449802
0.40567
0.300375
0.237993
0.21052
0.206613
0.0735206
0.173602
0.219782
0.213714
0.161494
0.109775
0.0709199
0.0861222
0.119529
0.10916
0.0640093
0.133907
0.195025
0.263941
0.596507
0.747178
0.601865
0.512702
0.437177
0.36337
0.302596
0.245694
0.209811
0.175501
0.166893
0.115222
0.15384
0.103142
0.0987309
0.0864931
0.0626252
0.146147
0.0815635
0.106374
0.075227
0.0826244
0.100898
0.0885482
0.207016
0.373118
0.260452
0.181742
0.142519
0.121029
0.115299
0.0968184
0.0803976
0.0757751
0.078793
0.098853
0.0987171
0.112422
0.114456
0.104903
0.0946304
0.0840649
0.0773079
0.0746346
0.0696241
0.0614167
0.0568359
0.052539
0.048274
0.0569264
0.0674323
0.0943614
0.177107
0.244256
0.207739
0.18337
0.174481
0.193363
0.191093
0.172877
0.226587
0.251116
0.296115
0.00974322
0.0101127
0.0111585
0.0174439
0.0262246
0.0360456
0.0481424
0.0964745
0.134823
0.150847
0.148259
0.174032
0.198744
0.428298
0.710785
0.687038
0.746518
0.804993
0.790425
0.695133
0.564324
0.79407
1.65663
1.92732
1.1948
0.00964486
0.00913427
0.00917671
0.00810845
0.00921232
0.0135819
0.0277643
0.0347358
0.0691198
0.151407
0.263863
0.330548
0.42144
0.771839
1.20819
1.115
1.10849
1.11199
1.17518
1.32543
1.12581
1.93153
3.64677
3.83364
2.64559
0.00963754
0.0091431
0.00914776
0.00774697
0.0104449
0.0175521
0.023467
0.0271256
0.0568593
0.151981
0.289038
0.40571
0.406308
0.600507
1.25064
1.97349
1.7385
1.17008
1.1898
1.93857
2.38409
3.65481
5.45063
6.34848
4.73037
0.00963334
0.00934058
0.00843297
0.00921249
0.00880017
0.0128295
0.0137697
0.034027
0.0486523
0.14703
0.295553
0.355718
0.439127
0.90202
1.68758
2.18421
1.92731
1.39433
1.21324
2.27589
3.75645
5.24711
7.43741
8.37005
7.8679
0.00964886
0.00930196
0.00871253
0.00780236
0.00933041
0.0109878
0.0196611
0.0707539
0.0691618
0.138926
0.209333
0.268709
0.44231
1.33608
2.09162
2.66514
2.06652
1.2901
1.74651
3.43752
5.39143
7.13281
8.81694
9.35644
9.13699
0.00965719
0.00949567
0.00785821
0.00907413
0.0100876
0.0181821
0.0534805
0.0779331
0.0717297
0.0902655
0.29625
0.448398
0.575044
1.88724
2.26426
2.89398
1.94146
1.6989
2.78909
4.50752
7.13746
9.17176
9.94865
9.57993
9.43174
0.00968228
0.00952094
0.00784247
0.0120142
0.0105839
0.0281645
0.0664239
0.0851862
0.0841426
0.0971081
0.310314
0.45041
0.741556
2.4113
2.73203
2.83212
2.03982
2.47824
3.44978
5.993
9.2035
10.5776
10.1637
9.44908
9.46612
0.00971872
0.00952972
0.00785837
0.00863625
0.0235603
0.0319819
0.0968907
0.168694
0.160711
0.143581
0.165431
0.287131
1.197
2.81066
3.18413
2.94558
2.54363
3.19994
4.84635
8.09037
10.8143
11.1772
9.95131
9.44168
9.38174
0.00975657
0.00954405
0.00789824
0.00820389
0.0276618
0.0398346
0.108495
0.234647
0.25376
0.253021
0.210624
0.423856
1.71213
3.18263
3.84299
2.94754
3.13941
4.32273
7.05012
9.80423
11.2462
11.0332
9.80421
9.26145
8.86021
0.00980217
0.00955959
0.00791962
0.00825109
0.0305844
0.0427682
0.136949
0.31509
0.332906
0.339401
0.279095
0.540357
1.93199
3.48599
4.4751
3.02064
3.33087
5.60371
8.62173
8.31509
9.27151
9.73008
9.48057
8.90445
8.1278
0.0098502
0.00959717
0.00799382
0.0103481
0.0347108
0.0623092
0.198111
0.429293
0.42919
0.448755
0.354035
0.533761
1.77375
3.53211
4.4393
3.376
3.89865
7.29605
8.94341
8.04476
7.69573
8.14137
8.64547
8.88438
7.06445
0.00990444
0.00962315
0.00808969
0.0139886
0.0398475
0.0898958
0.329723
0.479411
0.503521
0.472349
0.412624
0.631737
2.40368
3.47569
4.38763
3.84248
4.37577
7.99375
9.85561
8.83533
7.44545
7.18506
7.49331
7.17977
2.18833
0.00995989
0.00950154
0.00821559
0.0148591
0.0557052
0.145535
0.444394
0.613616
0.638226
0.506572
0.45493
0.791556
2.24941
3.56181
4.54058
4.36524
4.65514
7.98632
9.78755
10.0897
7.78274
6.45981
5.43397
2.63651
0.410264
0.00999992
0.00944505
0.0089731
0.0175122
0.0898824
0.23972
0.577676
0.685772
0.747302
0.592316
0.503405
0.658288
2.50412
3.80238
4.28751
4.01586
4.71957
7.29185
8.64168
7.60154
6.61291
4.41219
2.20658
0.644892
0.070984
0.0100389
0.00929154
0.0099376
0.0214504
0.136762
0.415788
0.695603
0.759696
0.88565
0.65328
0.559132
0.685342
2.24388
3.85321
4.19642
3.5595
4.2647
5.79226
5.75623
4.68242
3.4968
1.87708
0.991013
0.176017
0.0168765
0.0101525
0.00830828
0.010514
0.0228638
0.226068
0.386639
0.666045
0.880047
0.964945
0.721441
0.572186
0.799951
2.41969
4.02282
4.28563
3.58874
3.63454
4.02949
3.16987
2.2293
1.31214
0.990213
0.57996
0.170484
0.014247
0.0100789
0.009913
0.00871315
0.0222043
0.304997
0.403364
0.669513
0.995936
1.08532
0.856985
0.615624
0.82636
2.17837
3.75739
4.15122
3.4098
2.99388
2.97714
1.99597
1.09532
0.611675
0.553536
0.414786
0.191655
0.0149373
0.0099898
0.0114534
0.00919613
0.0173846
0.258859
0.42943
0.655053
1.06881
1.09632
0.963364
0.670641
0.788804
1.85818
3.4132
3.52807
3.20448
2.56961
2.325
1.42024
0.846594
0.4849
0.318542
0.24267
0.155285
0.0194605
0.00990764
0.0126038
0.0109237
0.0147031
0.237292
0.509202
0.865919
0.901604
0.998301
1.03345
0.785256
0.856011
1.63869
3.20913
3.49032
2.9551
2.31175
1.68061
0.988135
0.755298
0.654286
0.398369
0.384571
0.155448
0.0185562
0.010015
0.0110683
0.0194118
0.0344608
0.19258
0.261174
0.779246
0.975506
0.921153
1.04798
0.886734
0.899235
1.34334
2.59054
2.91833
2.474
1.89315
1.38813
0.845098
0.60999
0.512041
0.52856
0.683523
1.17555
0.0364167
0.00990047
0.0119426
0.0186804
0.0451989
0.251492
0.37277
0.601733
1.14996
1.00954
0.956913
1.077
1.00118
1.15992
2.21811
2.86759
2.23255
1.54816
1.19998
0.729339
0.504739
0.401672
0.531648
0.0123356
1.20366
0.0378539
0.00976804
0.0128626
0.0210191
0.0478658
0.173644
0.306012
0.420153
0.854652
1.09291
0.885063
0.898516
1.13959
1.16728
1.56036
2.1286
2.13565
1.52212
1.16664
0.806054
0.563071
0.545053
0.596746
0.74289
0.739758
0.102438
0.0108873
0.0141591
0.0236442
0.0580347
0.176406
0.218722
0.418035
0.650707
0.70953
0.594183
0.477706
0.564165
0.980527
1.38261
1.63278
2.11916
1.77425
1.45888
1.14278
0.989077
1.31207
1.29281
0.620213
0.367712
0.451961
0.11299
0.0990642
0.0688054
0.0480535
0.0851881
0.11165
0.283605
0.249158
0.106032
0.130339
0.154421
0.338228
0.391751
0.364632
0.267336
0.31858
0.338444
0.295512
0.258111
0.217244
0.183312
0.162871
0.158096
0.156992
0.138692
0.115752
0.107221
0.0977726
0.0876257
0.0838604
0.0796133
0.0690814
0.0612386
0.0569944
0.0561625
0.0558735
0.0585753
0.0973008
0.130264
0.251884
0.360137
0.309011
0.271166
0.247965
0.251257
0.228793
0.199499
0.188759
0.17892
0.200985
0.00941764
0.0100366
0.0102043
0.0116339
0.0128745
0.0178757
0.0239411
0.0342773
0.0664716
0.120853
0.114198
0.247457
0.41214
0.609306
1.17296
1.17332
1.27232
1.40335
1.48646
1.52737
1.13203
1.12314
1.38831
1.21233
0.962353
0.00940895
0.00893032
0.00854844
0.00844821
0.00805162
0.00823378
0.0074774
0.00796781
0.0115136
0.0438078
0.12134
0.394383
0.512925
0.785106
1.56469
2.21398
2.46167
2.11147
2.24129
2.10849
1.99364
1.90412
2.88806
3.39574
1.97235
0.00941045
0.00890183
0.00859651
0.00828437
0.00805504
0.0080424
0.00866847
0.00788944
0.0121649
0.024658
0.0657365
0.325137
0.575659
1.12729
2.56482
2.90368
3.01812
2.49162
2.36943
2.88472
3.36928
3.97706
5.29622
5.93351
3.84368
0.00940991
0.00891016
0.00854438
0.00844359
0.00769615
0.0076204
0.00786613
0.00740394
0.0114395
0.0198711
0.0583012
0.2173
0.488867
1.81528
3.23715
3.58348
3.25244
2.45936
2.88957
4.37927
5.69312
7.25223
8.04811
8.76321
8.03391
0.00941035
0.00889647
0.00858779
0.00834917
0.00772531
0.00688797
0.00719483
0.00732884
0.0100302
0.018354
0.0264307
0.239237
0.681055
2.50122
3.27533
3.76532
3.31889
3.18698
4.34658
6.36235
7.89152
9.21295
9.21241
9.61384
9.64593
0.00940891
0.00891552
0.00849222
0.00842068
0.00781646
0.00825851
0.00729168
0.00927369
0.00982455
0.0145144
0.0375818
0.38306
1.04919
2.97772
3.71428
4.56258
4.36191
4.57835
5.42158
7.4228
9.58197
9.75495
10.1508
9.83863
9.75367
0.00940673
0.00893268
0.00842873
0.00852989
0.00778068
0.00802056
0.00712953
0.00783187
0.0146495
0.0130074
0.100195
0.372663
1.24355
3.92236
4.32093
5.2634
5.58273
5.6939
6.39024
8.42944
11.2258
11.267
10.4871
9.63649
9.9696
0.00941104
0.00887923
0.00863095
0.0080881
0.00704314
0.00773334
0.0106426
0.0091239
0.0155151
0.0156732
0.039221
0.616474
1.79795
4.68526
4.91462
5.55946
6.25656
6.05485
6.84377
9.54152
12.2409
11.778
10.3675
9.93707
10.6533
0.0094112
0.0088722
0.00866772
0.0080827
0.00706041
0.0125973
0.0121937
0.0137245
0.0170897
0.0200319
0.0268913
0.934438
2.45162
4.79299
5.50056
6.3016
6.62951
6.7048
7.31207
9.61246
12.248
11.7263
10.6282
10.4005
10.6862
0.00941147
0.00888034
0.00866923
0.00807299
0.00702926
0.0141508
0.0159366
0.0182107
0.030585
0.0343501
0.0576451
0.764859
2.86046
5.03021
6.55738
6.39905
6.91617
7.82598
8.15186
10.1389
11.4613
11.7417
10.5987
10.376
10.2377
0.00941155
0.00888769
0.00866511
0.00813794
0.00714247
0.0149145
0.0215745
0.029317
0.0277035
0.0369042
0.0620198
0.870952
3.04852
5.37814
6.73705
6.06065
7.113
9.00429
9.76776
10.7207
10.8535
11.0007
10.1963
10.1454
9.94228
0.00940966
0.00892153
0.00855761
0.0081569
0.00760373
0.0185066
0.0399165
0.0496839
0.0365831
0.0413771
0.0552105
0.556463
3.10334
5.37441
5.99223
5.66299
6.91917
8.89953
9.97512
10.7765
9.93663
9.66967
8.88935
8.83456
8.80243
0.00941112
0.0089134
0.00869546
0.00745903
0.00827265
0.0273507
0.0801464
0.0866266
0.0659918
0.0559634
0.0830285
0.533082
3.27889
5.41506
6.36884
5.20374
6.15718
8.14228
9.05386
10.2028
9.08138
8.136
7.13333
6.91588
8.08941
0.00940769
0.00897773
0.00841584
0.00752026
0.00903721
0.0547908
0.154563
0.15559
0.0998182
0.0781998
0.12146
0.529837
3.04256
5.17617
5.9754
5.00472
5.37727
6.58458
7.77148
8.00263
7.94743
6.9296
5.84596
5.96788
3.67445
0.00940613
0.00901172
0.00831678
0.00792102
0.0154988
0.123387
0.31273
0.308359
0.161323
0.106851
0.118645
0.586502
2.86917
4.97275
5.75167
4.77263
4.78876
4.95659
5.91204
6.13886
6.31115
6.54249
5.36244
4.25821
0.864097
0.00940805
0.00902488
0.00822515
0.00849043
0.0316832
0.27508
0.600957
0.575629
0.304305
0.146325
0.146355
0.415043
2.75159
4.90444
5.43205
4.61575
4.29782
3.89041
4.12455
4.46832
4.7808
5.21239
5.03693
3.00988
0.700415
0.00939874
0.00917406
0.00760064
0.00922815
0.0786577
0.599728
1.1842
1.07288
0.57428
0.243981
0.175952
0.338302
2.03804
4.36048
4.88254
4.28868
3.80389
2.5588
2.03515
2.05067
2.5333
3.84492
3.47961
4.49447
3.03926
0.00940126
0.00921794
0.00774648
0.00963993
0.143438
1.12684
1.55096
1.40327
1.0043
0.420184
0.246819
0.282659
1.3063
3.94757
4.66721
4.03954
3.35533
1.905
1.33163
1.15273
1.23738
1.70391
2.09767
2.46088
1.22462
0.0094043
0.0091897
0.00846331
0.0140116
0.159999
1.22471
1.41141
1.64463
1.22579
0.658027
0.354911
0.347799
1.00522
3.36702
4.42245
3.44094
3.0897
1.8634
1.23802
1.03005
1.04727
1.49183
1.72977
1.85438
0.710911
0.00948858
0.0079799
0.0119446
0.017537
0.0945475
0.848417
1.52042
1.82553
1.60141
0.87603
0.559594
0.460682
0.690234
2.56517
4.28904
2.97113
2.33216
1.76452
1.33338
1.0585
1.3459
1.83924
2.25059
1.80232
0.53146
0.00947823
0.0079379
0.0147084
0.0191261
0.0565384
0.760028
0.971519
1.60675
1.64285
1.05999
0.885331
0.7752
0.826676
1.78941
3.56408
3.05808
2.01488
1.3347
0.858055
0.710454
0.966627
1.35689
1.46821
1.33698
0.420785
0.00956219
0.00802882
0.0125403
0.0177702
0.0440526
0.247753
0.753436
1.61206
1.62914
1.12493
0.890663
0.746881
0.758797
1.14142
2.69224
2.75132
2.04932
1.53216
1.09646
1.06525
1.19195
1.42575
1.54832
0.941579
0.895598
0.0117667
0.00930287
0.0155422
0.0874304
0.0983853
0.200408
0.670947
1.49326
1.5544
0.868831
0.666444
0.744632
1.04507
1.06066
1.62458
2.17938
2.01032
1.83444
1.55738
1.54159
1.85656
2.11465
1.43418
0.898015
0.680923
0.117728
0.0911748
0.0553212
0.0450433
0.0595946
0.160222
0.284545
0.216816
0.229441
0.277554
0.315458
0.343457
0.380515
0.436609
0.452066
0.470042
0.436896
0.402378
0.363231
0.320111
0.260641
0.232465
0.224185
0.215654
0.223529
0.116199
0.107618
0.0971653
0.0855899
0.0813461
0.0758042
0.0674602
0.0629639
0.0596648
0.0501013
0.0545458
0.103793
0.273728
0.328407
0.392867
0.561694
0.539038
0.479725
0.419641
0.334247
0.280608
0.234082
0.184248
0.193142
0.241432
0.00943905
0.0102102
0.00914913
0.0130445
0.0193578
0.0258851
0.0386722
0.0649858
0.128084
0.158384
0.146775
0.526329
0.773093
1.20411
2.10852
2.71326
2.59478
2.53458
2.32795
1.84119
1.24445
0.973754
1.10182
1.10062
1.35993
0.00940957
0.00891008
0.0086115
0.00820705
0.00868461
0.00818831
0.00893941
0.0127351
0.027036
0.0652504
0.168255
0.669597
0.961457
1.37219
2.72937
3.04691
3.52429
3.10332
2.64149
2.58867
2.13148
1.96628
2.15692
1.81406
1.54519
0.00940967
0.00890655
0.00853945
0.0083279
0.0080823
0.00824939
0.00767129
0.00780467
0.0139352
0.0283278
0.143516
0.544281
0.976335
1.65445
3.80609
4.05305
4.20553
3.28801
3.17699
3.52229
3.37165
3.53962
3.47892
3.35201
3.09742
0.00940859
0.00890858
0.00850562
0.0084071
0.00797757
0.00832305
0.007791
0.00715351
0.0115273
0.0150237
0.113237
0.543492
1.33901
2.6981
5.57078
5.22665
5.00361
4.07836
3.76137
4.95593
5.47704
5.85827
6.31176
6.30675
7.44982
0.00940878
0.00890905
0.00849256
0.00842348
0.00796554
0.00832414
0.00777591
0.00709056
0.0102634
0.0118507
0.0434829
0.680463
2.06705
4.10597
5.53696
4.93191
5.49897
5.27257
5.59702
7.25374
8.19985
7.94812
8.3174
8.39788
9.6193
0.00941022
0.00889164
0.00857875
0.00828099
0.0081645
0.00819551
0.00801596
0.00721997
0.00784072
0.0110501
0.126022
1.12054
2.49471
5.6182
5.37972
6.80151
7.97627
7.49226
7.8971
9.40239
10.6863
10.2045
8.80882
9.2758
10.3845
0.00941065
0.00888935
0.00862296
0.00820295
0.00831747
0.008003
0.00828006
0.00737322
0.0077225
0.0101436
0.164675
1.39839
3.30383
6.5736
5.86192
7.40528
8.78719
8.43103
7.46283
9.8205
11.9582
10.0694
10.4429
11.1539
10.7112
0.00941115
0.00888709
0.00862507
0.00823606
0.00824342
0.00828218
0.00824961
0.0074248
0.0085683
0.0221196
0.202691
1.94204
4.24193
7.18669
6.19722
7.88386
9.35193
7.52625
7.63569
10.1387
12.8129
12.8187
11.642
10.8539
10.5048
0.00940991
0.00890181
0.00860123
0.00835686
0.00807121
0.00845219
0.00843019
0.00766866
0.00938037
0.0244129
0.387016
2.39516
5.11602
7.67162
6.32911
8.29566
9.59282
8.98824
8.46183
10.9736
13.2951
12.3769
10.9486
10.5568
10.1547
0.00941033
0.00890402
0.00859829
0.00833852
0.00830705
0.00819413
0.0079238
0.00966767
0.0132495
0.0255876
0.447005
2.61745
5.76407
8.08849
6.57069
7.22121
8.60909
9.92082
9.81884
12.2948
12.4833
12.0129
10.4388
10.3545
9.89322
0.00940807
0.00892936
0.00852237
0.00861828
0.00803379
0.00742547
0.00795376
0.015503
0.0201947
0.0391929
0.201226
3.00156
6.24675
8.53206
7.02759
6.24752
8.27585
9.36553
10.1967
11.7679
11.8153
11.1702
10.3701
10.0326
9.88248
0.00941031
0.00891271
0.008559
0.00870776
0.00750206
0.00792307
0.0139387
0.0189082
0.0447821
0.0577201
0.243903
2.64211
5.90534
8.43273
7.09485
5.80401
8.2165
8.40033
9.20695
11.0479
11.358
11.0046
9.77443
8.51216
9.07513
0.00941081
0.0089067
0.00861062
0.00859962
0.00746801
0.00900359
0.0133173
0.0451877
0.070201
0.0894536
0.26434
3.08411
5.93719
8.16017
6.86262
5.87208
7.64303
7.3254
7.99467
10.1585
10.4727
9.43044
8.4274
7.4441
8.03693
0.0094115
0.00891538
0.00860125
0.00843426
0.00776994
0.0112501
0.0226085
0.0264125
0.0709232
0.0972845
0.538932
2.36608
6.13881
8.05311
6.44937
5.96186
6.84053
6.3022
6.88745
8.30071
8.7298
8.20337
7.26271
6.45929
7.0975
0.00941227
0.00890655
0.00868249
0.0082813
0.00898075
0.0170999
0.0474193
0.0377668
0.0527505
0.062757
0.430661
2.45252
5.50018
7.40202
6.26249
5.79309
5.92406
5.16486
5.57243
7.17875
7.35306
7.10827
6.32029
5.40539
5.81164
0.00940774
0.00900046
0.008131
0.010275
0.013525
0.0342368
0.1255
0.104736
0.0595788
0.0626321
0.264488
1.68611
5.41265
7.3246
6.40734
5.70548
4.8287
3.90585
4.16576
6.09224
6.33767
6.04526
5.61027
4.57601
5.17497
0.00939737
0.00915576
0.00788541
0.0230143
0.0212747
0.103164
0.361112
0.296463
0.14575
0.0801258
0.167322
0.942278
3.87546
6.38961
6.14678
5.08599
3.94973
2.88714
2.85064
4.62381
5.25521
5.16947
4.78005
4.08314
4.4637
0.00942624
0.00888962
0.00866107
0.0411713
0.0435887
0.225022
0.764848
0.66803
0.356165
0.157856
0.165909
0.555968
2.40742
4.84034
6.37152
4.37445
3.35025
2.0162
1.84833
3.13343
3.97694
4.26561
4.34163
3.68407
3.20372
0.00947081
0.00801278
0.0195287
0.0715491
0.0654462
0.271423
1.00351
1.1218
0.663562
0.338011
0.209869
0.340193
1.4732
3.62394
6.54782
3.97705
2.75257
1.80926
1.59326
2.42687
3.10554
3.61074
3.67553
3.03117
1.96414
0.00947666
0.00801364
0.0531056
0.0805218
0.0834794
0.290646
1.1592
1.85724
1.36849
0.67183
0.35903
0.406388
0.808395
2.09887
4.39213
4.01087
2.55819
1.68446
1.6029
1.99545
2.68032
2.9763
3.03547
2.42567
1.39836
0.00945981
0.00813871
0.0713336
0.0968339
0.144199
0.656138
1.2267
1.46505
1.46975
1.10795
0.683797
0.524788
0.766538
1.52159
2.93856
3.89049
2.68992
1.85307
1.39692
1.35337
1.91128
2.32286
2.29649
1.93484
1.85369
0.00954768
0.00780117
0.0499954
0.235811
0.406632
0.624814
1.01083
1.85812
1.83425
1.28809
1.07251
0.788738
0.80092
1.14589
2.16598
3.07908
2.62995
2.00954
1.54774
1.54033
1.90108
2.07563
1.87733
1.74628
1.73596
0.0121564
0.0118895
0.0813222
0.226307
0.364731
0.64197
1.19931
1.60879
1.76493
1.48249
1.12815
1.00191
1.03679
1.0375
1.50654
2.19103
2.35015
2.18687
2.02316
2.02941
2.09945
2.19556
1.97077
1.64665
1.25606
0.114289
0.0867681
0.0554875
0.102751
0.168977
0.211663
0.201746
0.21446
0.231427
0.324669
0.368189
0.321905
0.381632
0.437875
0.466859
0.481132
0.417286
0.354613
0.330776
0.317107
0.289765
0.268626
0.257924
0.24636
0.224414
0.115964
0.106706
0.0949336
0.0847593
0.0817749
0.0771655
0.0691356
0.0632553
0.0508733
0.0456582
0.0585965
0.202809
0.372712
0.444642
0.543298
0.735696
0.719971
0.604719
0.4641
0.35871
0.324606
0.313502
0.271471
0.298375
0.325483
0.00951983
0.0100834
0.00924346
0.0152421
0.0244665
0.0311883
0.0321656
0.0686164
0.102257
0.108546
0.245558
1.04913
1.55073
2.1048
3.57943
4.68686
4.56997
4.77702
3.6987
2.41186
1.37138
1.14671
1.1434
1.6219
2.11356
0.00940914
0.00892157
0.00858081
0.00841914
0.00874316
0.00828122
0.00825247
0.0150914
0.0284533
0.0506881
0.261156
1.23363
1.85414
2.64329
4.71255
5.27676
5.27157
4.7319
3.88185
2.76117
2.104
2.07085
1.99391
1.88845
2.2289
0.00941035
0.00890362
0.0085721
0.00831119
0.00819149
0.00825301
0.00745145
0.00829172
0.0139002
0.0256722
0.359304
1.17394
2.0416
3.37319
5.48811
5.82155
5.8316
4.83039
4.27825
3.99912
3.42228
2.92247
2.63844
2.60492
3.16902
0.00940899
0.00892004
0.0085356
0.00840381
0.00809162
0.00821604
0.00797814
0.0073058
0.00807045
0.0117119
0.327731
1.29117
2.59714
4.46369
6.62546
5.79635
5.82916
5.31792
5.02481
5.52034
5.71306
5.46177
5.04744
5.058
5.52547
0.00941037
0.00891527
0.00858038
0.00833558
0.00818404
0.00820513
0.00805602
0.0070728
0.00765976
0.0110018
0.29834
1.64369
3.42513
5.64556
6.42728
5.53539
6.97921
7.29421
6.97438
7.05287
7.1735
7.45412
7.61382
7.13791
7.57366
0.00941042
0.00891504
0.00861539
0.00831622
0.00827877
0.00819151
0.00821012
0.00714123
0.00987973
0.0370273
0.500833
2.1952
4.2213
6.69133
6.30401
6.82677
10.0597
10.1194
9.76798
9.86278
9.37627
9.35917
8.3141
8.40114
9.57628
0.00941101
0.00891695
0.00863471
0.00828442
0.00840578
0.00825614
0.00801141
0.00722836
0.00893019
0.036355
0.69857
2.69794
5.13943
7.61596
6.80228
8.00089
10.5795
9.42885
8.6079
10.4703
11.2383
9.29822
9.0501
9.98319
10.608
0.00941028
0.00892212
0.00861053
0.00836343
0.0084449
0.00830899
0.00778132
0.0088447
0.016843
0.206707
1.29622
3.34169
6.02634
8.43684
7.17865
8.72054
10.7709
10.6778
9.62597
11.0828
12.4509
11.465
11.8248
10.8702
10.5946
0.00941118
0.00892568
0.00864237
0.00838889
0.00848378
0.00810014
0.00827538
0.0139874
0.0260868
0.331998
2.06306
4.06981
6.9053
9.18485
7.41854
9.7493
10.4763
10.6157
11.0801
11.7599
13.749
12.524
11.249
10.344
9.81782
0.00941145
0.0089267
0.00867267
0.00839201
0.00860037
0.00814091
0.01025
0.0516416
0.0853563
0.339192
2.47524
4.87428
7.64846
9.68874
7.8426
10.1744
10.8545
10.3405
11.5225
12.2226
12.3333
11.0823
10.38
9.75616
9.42822
0.0094105
0.00895918
0.00861756
0.00866158
0.00768777
0.00988884
0.030918
0.150831
0.184797
0.466764
2.32412
5.34133
7.96472
10.0536
8.28634
9.39743
9.79187
10.2858
11.0542
11.6983
10.7878
10.0669
9.93101
9.63293
9.20625
0.0094147
0.00890971
0.00887025
0.00805527
0.00855838
0.0212684
0.171865
0.290298
0.559468
0.708131
2.2036
5.52937
7.99532
10.0197
8.57779
8.11876
8.08655
9.18094
10.1739
10.6272
10.2428
10.0387
9.74266
9.63192
9.20177
0.00941434
0.0089075
0.0089578
0.00743421
0.0122436
0.0389403
0.362023
0.508225
0.902969
0.951925
2.09961
5.48286
7.72255
9.71897
8.56333
7.72898
7.52903
7.63761
8.72161
10.1632
10.2033
10.2289
9.58288
9.16522
8.80774
0.00939501
0.00918506
0.00757838
0.00903992
0.0289684
0.0783809
0.334546
0.399376
0.713117
0.853184
2.23464
5.05951
7.37249
9.38237
8.55265
7.45255
7.16841
5.77345
6.56077
8.71178
9.5814
9.56013
8.73965
8.19387
8.08628
0.00939559
0.00917613
0.00772173
0.0181125
0.0645926
0.106598
0.188312
0.226611
0.424428
0.541405
1.50454
4.85669
7.21653
9.01199
8.64803
7.36603
6.83546
4.89639
4.89888
6.27688
7.59203
7.78568
7.50593
7.22087
7.18474
0.00940802
0.00911139
0.00768899
0.0489265
0.143452
0.133028
0.147374
0.153101
0.219832
0.307673
0.895909
3.48119
6.58188
8.51215
8.40761
6.90704
6.21598
4.0898
3.9608
5.04413
5.67887
5.91213
6.00756
6.14116
6.45657
0.00947463
0.00794799
0.00896908
0.162114
0.178095
0.12729
0.160894
0.172147
0.16606
0.198284
0.46085
2.06235
4.83008
7.23542
7.11919
6.18165
5.18731
3.91154
3.53893
4.29544
4.67467
4.80435
4.68839
4.8217
5.20856
0.00947801
0.00789681
0.0141448
0.242929
0.220473
0.153102
0.214019
0.244953
0.192954
0.179462
0.279013
1.1199
3.2635
4.9644
6.15645
5.73359
4.48659
3.42003
3.18255
3.90041
4.10094
4.12017
3.8192
4.05481
4.37674
0.00947162
0.00817549
0.13413
0.333259
0.276299
0.195942
0.251172
0.31205
0.261705
0.200467
0.229256
0.65859
1.90166
3.14822
5.05732
4.48809
3.71943
2.87727
2.61412
3.33011
3.67776
3.67227
3.53117
3.45881
4.05705
0.00946526
0.00826176
0.200391
0.50399
0.378959
0.255897
0.372011
0.473362
0.452716
0.315539
0.247125
0.371157
1.26359
2.00526
2.96761
3.47453
2.97512
2.41302
2.22229
2.41554
2.89669
3.26101
3.30193
2.94279
3.08682
0.00950528
0.00790018
0.262426
0.687472
0.584232
0.529893
0.679774
0.908815
0.969647
0.72408
0.439207
0.444141
0.788602
1.46511
2.01001
2.60976
2.62322
2.36121
2.06483
2.00872
2.51885
2.78686
2.89678
2.77672
2.49613
0.00950216
0.00842514
0.318803
0.765343
0.823053
1.05616
0.972254
1.01839
1.06524
1.05889
0.944791
0.620976
0.826124
1.1846
1.84561
2.24215
2.50324
2.59282
2.33456
2.36169
2.55805
2.49396
2.40653
2.71112
2.63719
0.0118854
0.0138977
0.170439
0.560763
0.724363
0.899422
1.03514
1.58034
1.70833
1.38234
1.27333
1.20173
1.03308
1.09692
1.36771
1.90733
2.34135
2.48333
2.44449
2.56278
2.34778
2.08458
2.0015
2.27623
1.98905
0.115879
0.0888059
0.0818474
0.141991
0.160814
0.196297
0.227426
0.242779
0.280156
0.362967
0.350412
0.325639
0.319526
0.340868
0.376968
0.389966
0.349541
0.303915
0.276537
0.269594
0.248689
0.248751
0.230775
0.232653
0.229028
0.116122
0.106669
0.0949762
0.0842045
0.0795695
0.0736129
0.0690313
0.0624936
0.0478956
0.0460338
0.0910379
0.397984
0.550022
0.657075
0.740222
0.818895
0.798899
0.703821
0.505328
0.398293
0.380953
0.379819
0.402272
0.375741
0.404607
0.00952647
0.00982901
0.00824212
0.012254
0.0197916
0.022474
0.0317979
0.0541008
0.0514663
0.0918159
0.806897
1.67473
2.23758
3.24635
5.18693
6.21933
6.52446
6.44458
5.09134
3.27113
2.2636
1.89105
2.43986
2.6972
2.92959
0.00940849
0.00892037
0.00853235
0.00840495
0.00842291
0.007611
0.00785405
0.00957399
0.0101614
0.0713093
1.09499
2.17099
3.08542
4.71799
6.90069
7.36197
7.528
7.17271
5.99778
3.6931
2.68143
2.37618
2.61086
3.07086
3.66257
0.00941025
0.00889577
0.00856096
0.0082521
0.0083285
0.00784924
0.00787707
0.00728157
0.00807927
0.0421517
0.949452
2.30931
3.52817
6.01456
8.03735
7.88587
7.72502
6.43329
5.49653
4.45392
3.50606
3.10091
3.04702
3.2859
4.02653
0.00940966
0.00889911
0.00857647
0.00826579
0.00824945
0.00807742
0.00795985
0.00698825
0.00548723
0.136854
1.30471
2.65224
4.35482
7.39849
8.79822
8.89006
8.267
6.84352
6.36715
5.53245
4.65858
4.39737
4.44934
4.69532
5.40861
0.00941103
0.00890064
0.00857986
0.00830464
0.00818002
0.00822597
0.00782922
0.00711594
0.00743374
0.0675146
1.49997
3.11821
5.58582
8.69251
9.73198
7.58885
7.8131
8.51732
8.8009
7.51807
6.71849
6.20976
6.41578
6.08724
6.30977
0.00940938
0.00891253
0.00859381
0.00830456
0.00833384
0.00815495
0.00786464
0.00725986
0.016422
0.18943
1.99132
3.75626
6.35786
9.35673
9.32847
7.81096
9.64299
11.0635
10.6716
10.1902
9.1443
9.09108
8.46744
8.45898
7.80497
0.00941058
0.00891465
0.00859552
0.00830926
0.0085053
0.00789808
0.00783756