/*--------------------------------*- C++ -*----------------------------------*\
  =========                 |
  \\      /  F ield         | OpenFOAM: The Open Source CFD Toolbox
   \\    /   O peration     | Website:  https://openfoam.org
    \\  /    A nd           | Version:  11
     \\/     M anipulation  |
\*---------------------------------------------------------------------------*/
FoamFile
{
    format      ascii;
    class       volScalarField;
    location    "20";
    object      omega;
}
// * * * * * * * * * * * * * * * * * * * * * * * * * * * * * * * * * * * * * //

dimensions      [0 0 -1 0 0 0 0];

internalField   nonuniform List<scalar> 
17196
(
0.0215097
0.0202714
0.0191527
0.0182325
0.0171307
0.0161943
0.0152759
0.0142697
0.0131835
0.0120045
0.0113826
0.0121755
0.0132502
0.0146863
0.0215968
0.0242665
0.0238854
0.0237349
0.024618
0.022122
0.0182973
0.0168264
0.0274498
0.029798
0.0200487
0.0109772
0.0106393
0.0102359
0.010042
0.00957695
0.0092135
0.00877383
0.0077659
0.00685213
0.00634465
0.00613435
0.00610263
0.00686483
0.00900474
0.00989989
0.0106691
0.0110016
0.0113345
0.0113766
0.0111937
0.0101795
0.0148768
0.0229237
0.0223961
0.0109131
0.0109648
0.0106619
0.0102817
0.0100096
0.0096435
0.00939802
0.00925024
0.00831547
0.00733002
0.00680387
0.00675759
0.0067548
0.00753889
0.00927632
0.0097365
0.0121422
0.0124508
0.0118314
0.0113729
0.0112976
0.0110611
0.0224473
0.0287149
0.0285804
0.0180978
0.0109488
0.010682
0.0102619
0.0100312
0.00975488
0.00945182
0.00931936
0.00847114
0.00779094
0.00771427
0.00745464
0.00758852
0.00743352
0.00777555
0.0115913
0.0137326
0.0134725
0.0128725
0.0117719
0.0171984
0.0191775
0.0283537
0.0331255
0.0333926
0.0251417
0.0109573
0.0106673
0.0102599
0.0100711
0.00984838
0.00955064
0.0091433
0.00882216
0.00802069
0.00831185
0.00874731
0.00951776
0.00908318
0.010126
0.0147464
0.0153774
0.0148962
0.014362
0.0146483
0.0192385
0.0263046
0.0335935
0.0355631
0.0366639
0.0308637
0.0109587
0.0106603
0.0102355
0.0100982
0.00990556
0.00946119
0.00936841
0.00891608
0.0091004
0.00866806
0.0095808
0.0099565
0.0104471
0.0136591
0.0157233
0.0165794
0.0155616
0.0158184
0.0182993
0.0245824
0.0310547
0.0362358
0.0374876
0.0384816
0.0338646
0.0109714
0.0106425
0.0102337
0.010089
0.00984308
0.00950861
0.00942156
0.00907161
0.00892324
0.00989673
0.0107564
0.0104958
0.0126523
0.0146604
0.0171192
0.0169294
0.0170308
0.0189702
0.024283
0.0303635
0.0353183
0.0386757
0.0379501
0.038022
0.0351623
0.0109647
0.0106405
0.0102446
0.0100888
0.00978276
0.00971432
0.00965246
0.00916371
0.00890006
0.0095565
0.0103517
0.010358
0.0132972
0.0153677
0.0157948
0.0166957
0.0166619
0.0222767
0.0292269
0.0325873
0.0359918
0.0380388
0.0354073
0.0349073
0.0340575
0.0109881
0.0106108
0.0102478
0.0101517
0.00966438
0.00975125
0.00968306
0.0097897
0.00924261
0.00955232
0.00999488
0.0108409
0.0137223
0.0157879
0.016705
0.0181128
0.0186803
0.0269239
0.0312015
0.0343744
0.0363929
0.0371414
0.0353329
0.0344156
0.0352933
0.0109875
0.0105944
0.0103084
0.0101554
0.00970347
0.00985684
0.00960091
0.00981716
0.0105412
0.0098033
0.0101403
0.0131092
0.0171371
0.0178294
0.0182482
0.018752
0.0223711
0.0299507
0.0337812
0.035384
0.0357148
0.034914
0.0336947
0.0330429
0.0317922
0.0110067
0.0105693
0.0103127
0.0100889
0.00962648
0.00999284
0.0107555
0.0106843
0.0113656
0.010486
0.0102038
0.0119278
0.0176875
0.0191964
0.0193921
0.019147
0.0250873
0.0332485
0.0358744
0.0357098
0.0332932
0.0320791
0.0301394
0.0283556
0.0280548
0.0110068
0.0105502
0.0104054
0.0100137
0.00979776
0.0101487
0.0114865
0.0118567
0.0121928
0.0110416
0.0109004
0.0117561
0.0182628
0.0198721
0.0201355
0.0194931
0.0260471
0.0352179
0.0381136
0.0356956
0.0325178
0.0286983
0.0267962
0.0249118
0.0252352
0.0110177
0.010544
0.0103546
0.00999271
0.00969094
0.0106476
0.0123907
0.0127488
0.0129584
0.0118148
0.0109259
0.012859
0.0191802
0.0196384
0.0204972
0.0208355
0.0264346
0.0362395
0.0385501
0.0380271
0.0322064
0.0284645
0.0250528
0.0223766
0.0212709
0.0109853
0.0105629
0.0104119
0.00995217
0.00960762
0.0113273
0.0133441
0.0137848
0.0133613
0.0119582
0.0113185
0.0130016
0.0200084
0.0196546
0.0215237
0.0204121
0.0268619
0.0359388
0.037853
0.0377381
0.0328266
0.0273729
0.0222038
0.0175595
0.0152076
0.0109528
0.0106277
0.010273
0.00999617
0.0092202
0.00970928
0.0144001
0.0145098
0.013886
0.0119497
0.0111886
0.0132285
0.0187283
0.0201323
0.021125
0.022319
0.0274835
0.0347051
0.0364098
0.0356051
0.0318335
0.0255621
0.019081
0.0138952
0.0122822
0.0109249
0.0106528
0.0102027
0.00987496
0.00931614
0.010718
0.0142825
0.0151862
0.0137064
0.0121738
0.0122019
0.0148355
0.0185821
0.0198263
0.0204641
0.0234202
0.0300456
0.0336665
0.0343655
0.0344412
0.0295193
0.0229162
0.0164327
0.0116348
0.0107591
0.0109617
0.010611
0.010214
0.00945708
0.0091265
0.0114241
0.0142947
0.0147523
0.0134793
0.012221
0.0120546
0.0148733
0.0186634
0.0197055
0.0196388
0.0204678
0.028513
0.0334217
0.0334148
0.0316558
0.0272632
0.0217386
0.0139537
0.0105409
0.0105238
0.0109623
0.0105785
0.0102229
0.00917085
0.00940799
0.012108
0.0144969
0.0144539
0.0137923
0.0125701
0.0131477
0.0157355
0.0190071
0.0195473
0.0187928
0.0197358
0.027785
0.031959
0.0316085
0.0276385
0.0238241
0.0183765
0.0114545
0.0102075
0.0105094
0.0109609
0.0106023
0.0101172
0.00910388
0.0093004
0.0130206
0.0146479
0.0144474
0.0139782
0.0138009
0.0128948
0.016473
0.0191974
0.0190416
0.0193502
0.0207325
0.0282688
0.0304557
0.0277461
0.0232426
0.0197889
0.0136631
0.0101598
0.0100004
0.0106844
0.0109514
0.0106078
0.0101382
0.00923374
0.00945289
0.0118982
0.0137076
0.014122
0.0146333
0.0135802
0.0127354
0.0149315
0.018746
0.0186465
0.018107
0.0219135
0.027126
0.0276867
0.0238864
0.0197099
0.0149174
0.010498
0.00945294
0.00957218
0.0100834
0.0109568
0.0106266
0.0101972
0.00940937
0.00904324
0.00863006
0.0132014
0.0136602
0.0144255
0.013583
0.0124152
0.0142687
0.0175339
0.0184014
0.0181239
0.0209189
0.024847
0.0247332
0.020668
0.0148881
0.0118424
0.0102467
0.0102882
0.0101481
0.0100165
0.0109577
0.0106404
0.010267
0.00965026
0.00878231
0.00668778
0.00884916
0.0122991
0.0139393
0.013468
0.0128445
0.0145719
0.0165729
0.0175833
0.0174146
0.0188529
0.0219389
0.0220583
0.0192806
0.0151855
0.0123196
0.0116711
0.0110379
0.0114043
0.0130674
0.0110002
0.0105844
0.0101155
0.00964557
0.00899956
0.00722853
0.00710691
0.00810121
0.0114867
0.0121618
0.0121699
0.0132852
0.0156256
0.0165353
0.0168098
0.0169518
0.0185553
0.01893
0.0182402
0.016024
0.0151887
0.0133529
0.0114707
0.0101639
0.011512
0.0110012
0.0105111
0.0100383
0.00926025
0.00795782
0.0078766
0.00754118
0.00751187
0.0081356
0.0107858
0.011226
0.0131999
0.0144581
0.0150864
0.0156591
0.0167368
0.0168996
0.0169497
0.0167671
0.0160989
0.0152706
0.0138097
0.011901
0.00952388
0.00927075
0.0215451
0.0199316
0.0184578
0.0142194
0.00837708
0.0217611
0.0209425
0.0181591
0.0163161
0.0149896
0.0170855
0.0201598
0.0221395
0.0226712
0.0233335
0.0254636
0.0268691
0.0282461
0.0276469
0.0263333
0.0252111
0.0235205
0.0210549
0.0178849
0.0167921
0.0216021
0.0206261
0.0196922
0.0188997
0.0179919
0.0171415
0.016324
0.0156123
0.0149111
0.0136288
0.0127023
0.0152574
0.0177512
0.019925
0.0330312
0.0341876
0.0345977
0.0342845
0.0354911
0.0333136
0.0270959
0.0246259
0.0278491
0.0267255
0.0220431
0.337126
0.140356
0.0806648
0.0541214
0.0400086
0.0319259
0.0265375
0.0223846
0.0210606
0.0193408
0.0197626
0.0200264
0.0195501
0.0197545
0.0219194
0.0218159
0.0210704
0.0218926
0.0266968
0.0299693
0.028832
0.0263242
0.0251424
0.0223338
0.0177397
0.337874
0.141081
0.0814252
0.0557438
0.0418602
0.0333334
0.0278006
0.0242201
0.0217406
0.0198648
0.0191664
0.0187045
0.0167334
0.0146332
0.016212
0.0171994
0.0171303
0.0169386
0.0202227
0.023025
0.0267372
0.0270576
0.0246687
0.0227106
0.0167519
0.337894
0.140995
0.0815125
0.0557173
0.0421584
0.0331149
0.0279906
0.024388
0.02226
0.0206384
0.0182748
0.0184188
0.0194568
0.0179413
0.0194613
0.0192311
0.0194326
0.0204219
0.0217684
0.0230859
0.0261572
0.0270519
0.0230024
0.0208144
0.018224
0.337935
0.14115
0.0816094
0.0558491
0.0419697
0.0333297
0.0280906
0.0246347
0.0217391
0.0204696
0.017862
0.0180126
0.0167136
0.017611
0.0196802
0.0211896
0.0207688
0.0224519
0.0235776
0.0252548
0.0264064
0.0257099
0.0212281
0.0194681
0.0180843
0.337917
0.141344
0.0817461
0.055823
0.0418303
0.0334164
0.0279278
0.0243691
0.0205655
0.0191104
0.0182077
0.0172834
0.0151443
0.0156867
0.0175432
0.0188975
0.0209044
0.023458
0.0242007
0.0245059
0.0254217
0.022995
0.020485
0.0195108
0.0188868
0.337822
0.141532
0.0818472
0.0558461
0.0417102
0.0334246
0.0274721
0.022693
0.021054
0.0184835
0.018325
0.0168718
0.0150305
0.0159809
0.019076
0.0200046
0.0217552
0.0227451
0.02345
0.0240104
0.0240458
0.0211339
0.0203051
0.0202727
0.0194424
0.33763
0.14166
0.0820059
0.0559775
0.0416053
0.0331257
0.0271535
0.0224488
0.0198165
0.0184023
0.0174229
0.0162384
0.0149678
0.0158004
0.0187468
0.018725
0.0202046
0.0218518
0.0230587
0.0227584
0.0218519
0.020553
0.0207068
0.0208016
0.0193623
0.337367
0.141628
0.0820666
0.0560532
0.0416854
0.0327927
0.0271105
0.022827
0.0198316
0.0186273
0.0185511
0.0178508
0.0154761
0.0156896
0.0173013
0.0181924
0.0196284
0.021765
0.0221231
0.021747
0.0211309
0.0207952
0.0213992
0.0213913
0.0193355
0.337008
0.141535
0.0822021
0.0564027
0.0419051
0.0330434
0.0273165
0.0235729
0.021311
0.0200717
0.0190978
0.0181536
0.0158801
0.0156345
0.0158695
0.0177915
0.02029
0.0216094
0.0218996
0.0218804
0.021913
0.0216467
0.0221657
0.0219708
0.0197118
0.336744
0.141456
0.0822945
0.0565443
0.0420447
0.0328504
0.0272725
0.0244569
0.0230295
0.0213075
0.0196418
0.0183649
0.0163932
0.0149879
0.0146537
0.0175022
0.02146
0.0216494
0.0226827
0.023547
0.0234023
0.0226886
0.0230324
0.0224001
0.0211151
0.336469
0.141496
0.0825144
0.0562793
0.042038
0.0317033
0.0265718
0.0250115
0.0244183
0.0227516
0.0204846
0.0188221
0.0166909
0.0148216
0.0145941
0.0175322
0.0225614
0.0214636
0.0213088
0.023471
0.0253222
0.0243191
0.023974
0.0231043
0.0237887
0.336296
0.141428
0.0826942
0.0560742
0.0410996
0.0297623
0.024979
0.0247994
0.0248727
0.0239031
0.0211486
0.0193939
0.0167159
0.0163301
0.0154933
0.018142
0.0234168
0.0219253
0.0213017
0.0236585
0.025148
0.0248864
0.0244783
0.0243566
0.0534673
0.336061
0.141151
0.0829181
0.0558955
0.0391501
0.0263283
0.0237015
0.0247325
0.0245213
0.0249333
0.0222033
0.020093
0.0174324
0.0163065
0.0160832
0.0183691
0.0251014
0.023293
0.0215225
0.0229522
0.0256228
0.026475
0.0259585
0.0325151
0.118933
0.33583
0.140381
0.0824909
0.0548728
0.0356224
0.0217921
0.0206548
0.0248948
0.0246909
0.0249896
0.022936
0.0204242
0.0184815
0.0168064
0.0178993
0.0213957
0.0265366
0.0252598
0.0222052
0.0239622
0.0261566
0.0277633
0.031547
0.0585334
0.215655
0.335513
0.139997
0.0819357
0.0533122
0.0317396
0.0194454
0.0180582
0.0223724
0.0241991
0.0255253
0.0233771
0.0206774
0.0188137
0.0166978
0.0172715
0.0247102
0.0286533
0.0278791
0.024922
0.0260908
0.0281272
0.0316302
0.040642
0.0986444
0.370972
0.335156
0.139712
0.0821879
0.0515323
0.029065
0.0183424
0.017208
0.0216589
0.0241163
0.0256525
0.024335
0.0207765
0.0188511
0.0166476
0.0167816
0.0220584
0.0292203
0.029849
0.0285069
0.0286711
0.0309206
0.0342521
0.0423773
0.104378
0.386804
0.33486
0.139297
0.0826725
0.0509155
0.0264741
0.0173436
0.0168105
0.0215566
0.0235286
0.0247887
0.0241682
0.0207232
0.0188349
0.0169908
0.0175267
0.0217667
0.0294291
0.0298168
0.0291278
0.0293932
0.0329956
0.0327199
0.0506765
0.0988795
0.450839
0.334836
0.138422
0.0810255
0.0532381
0.0247623
0.0175746
0.0168916
0.0197781
0.024169
0.024407
0.0237996
0.0205125
0.0177625
0.0164725
0.0195034
0.0219771
0.0294452
0.0297834
0.0286419
0.0284627
0.0316849
0.0351496
0.0513103
0.0958956
0.36484
0.334997
0.137131
0.0802949
0.0561949
0.0310653
0.0196021
0.0168914
0.0202751
0.024534
0.0239974
0.0232421
0.0198749
0.0173678
0.0161942
0.0177901
0.0239246
0.028999
0.0274228
0.0250562
0.0235938
0.0245115
0.0349075
0.0510139
0.0423715
0.337578
0.33512
0.137864
0.0771448
0.0518117
0.0400508
0.0300728
0.0184386
0.0194522
0.023654
0.0236549
0.0216849
0.018791
0.0167919
0.0165887
0.018759
0.0254477
0.0284238
0.0277901
0.0240004
0.0200892
0.0218069
0.0262757
0.0321776
0.114244
0.334691
0.335822
0.136597
0.0795985
0.0492141
0.0345079
0.0359407
0.0285349
0.0198191
0.0226406
0.0235352
0.0198779
0.0181614
0.0174712
0.0168918
0.0178678
0.0248391
0.0283187
0.0279492
0.0250415
0.0210919
0.0230017
0.0298785
0.00746854
0.252289
0.130215
0.336446
0.136251
0.0794486
0.0498535
0.0321774
0.0224522
0.0300924
0.018891
0.0195068
0.0205228
0.0173463
0.0153117
0.0161848
0.0172323
0.0184109
0.022974
0.0277724
0.0290745
0.029689
0.0289832
0.0302881
0.0282711
0.0383926
0.0485828
0.142557
0.329823
0.133758
0.0791548
0.050807
0.0314642
0.0267143
0.0318197
0.0250379
0.0175461
0.0187578
0.0183253
0.0165353
0.0159284
0.0170338
0.0193624
0.0220742
0.0258972
0.0286507
0.0312609
0.0318509
0.0302119
0.0278416
0.0262565
0.0345069
0.0788032
0.0219603
0.0194916
0.0183303
0.016289
0.0210804
0.0298713
0.0319639
0.0245152
0.0238941
0.0257787
0.0238247
0.0270804
0.0276892
0.0301081
0.0348348
0.0411983
0.0441573
0.0441138
0.0436951
0.0413865
0.0385083
0.0341643
0.0288183
0.0245655
0.0227266
0.021614
0.020587
0.0196785
0.0187156
0.0176898
0.0166202
0.015806
0.0152591
0.0143536
0.0131525
0.0117873
0.0141843
0.0181922
0.0198293
0.035427
0.0399574
0.0432234
0.0410067
0.0411422
0.0387619
0.0332876
0.0283361
0.0264508
0.0253073
0.030787
0.338802
0.139077
0.079459
0.0533955
0.0392614
0.0306561
0.025295
0.0214925
0.0186707
0.0170096
0.0169329
0.0184865
0.0193731
0.0186603
0.0248386
0.0293378
0.0287593
0.0284127
0.0291684
0.0309781
0.0320377
0.0303548
0.0284576
0.0242482
0.0254979
0.339056
0.139962
0.0799143
0.0537506
0.0396542
0.0311549
0.0258845
0.022267
0.0204846
0.0180135
0.0163485
0.0168378
0.0166087
0.0170509
0.0195361
0.0213317
0.0201905
0.0212455
0.0264242
0.0303337
0.0302881
0.0312133
0.028943
0.0227201
0.0230323
0.338994
0.139695
0.0797468
0.0537158
0.0397042
0.0311648
0.0261219
0.0223711
0.0204621
0.0186886
0.016193
0.0157295
0.0161142
0.0165403
0.0191028
0.0235659
0.0219378
0.024764
0.0287656
0.0290103
0.0307769
0.0297849
0.0258187
0.0223456
0.020499
0.338951
0.139485
0.0796042
0.0536206
0.0395912
0.0311598
0.0260307
0.0226047
0.0209489
0.0192923
0.0167535
0.0158599
0.0152879
0.0152172
0.0191256
0.0229982
0.0256698
0.0259688
0.0274148
0.0281641
0.02784
0.026366
0.0234016
0.0210748
0.0196408
0.338843
0.139168
0.0795158
0.0535421
0.0396661
0.0312436
0.0264838
0.0229183
0.0212924
0.0202579
0.0176488
0.015887
0.0148979
0.015481
0.0196881
0.0231805
0.0218775
0.024126
0.0249618
0.0250876
0.0247374
0.0234916
0.0230197
0.0217233
0.0204994
0.338768
0.138924
0.0795351
0.0535232
0.0397773
0.0315158
0.0270026
0.0235444
0.0217118
0.0200155
0.0188635
0.0163321
0.0148927
0.0157122
0.0194028
0.0194808
0.0200479
0.0217063
0.0228021
0.0233245
0.0229641
0.0227176
0.0229383
0.0236445
0.0221293
0.338721
0.13889
0.079694
0.053529
0.0399163
0.0316831
0.0275064
0.0239302
0.0219635
0.0199188
0.0186588
0.016762
0.0146785
0.0158127
0.0174861
0.0186704
0.019271
0.020623
0.0220841
0.0224366
0.0214784
0.0220681
0.0235116
0.0239
0.0220244
0.3388
0.139116
0.0798215
0.0536206
0.0399602
0.0320575
0.0280205
0.0247615
0.022261
0.0203108
0.0189535
0.0172131
0.0147213
0.0154247
0.0168442
0.0176552
0.0185346
0.0207945
0.0230654
0.0229264
0.0213809
0.0221114
0.0233423
0.0236897
0.0212433
0.3389
0.139594
0.0801121
0.0539591
0.0402507
0.0326719
0.0286853
0.0257295
0.0230036
0.0210692
0.0194305
0.0178713
0.0150082
0.0152775
0.0162464
0.0170199
0.0185787
0.0205742
0.0237061
0.0236151
0.0220226
0.0222189
0.0233865
0.0236097
0.0212785
0.33907
0.140158
0.0804236
0.0541214
0.0406584
0.0332585
0.0295578
0.0268476
0.0239662
0.0217678
0.0199887
0.0185596
0.0153331
0.0151031
0.0158612
0.0169894
0.0185374
0.0194661
0.0218483
0.022441
0.0226455
0.0223048
0.0239903
0.023962
0.0221587
0.339243
0.140979
0.0809528
0.0545988
0.0411078
0.0344996
0.030575
0.0282755
0.0250646
0.0226298
0.0206072
0.0189542
0.016415
0.0149472
0.0156852
0.0173308
0.0195871
0.0192019
0.0201001
0.0215165
0.0227966
0.0236905
0.0243552
0.0241064
0.022851
0.339305
0.141229
0.081071
0.0548384
0.0417431
0.0362239
0.032462
0.029215
0.026673
0.0238709
0.0210925
0.019183
0.0172802
0.0152335
0.0162761
0.0181234
0.0209478
0.0193323
0.0196006
0.021564
0.0228655
0.0238138
0.0245949
0.0241872
0.0237868
0.33942
0.141669
0.0812126
0.0551317
0.0431544
0.037523
0.0335521
0.0299859
0.0271462
0.0247777
0.0215202
0.0194374
0.017761
0.015676
0.0171047
0.0194892
0.0227189
0.0203949
0.0201079
0.0220466
0.0233768
0.0241863
0.0244784
0.0232265
0.0242715
0.339492
0.141871
0.0810792
0.0552451
0.0443608
0.037269
0.032467
0.0298284
0.0274989
0.0253062
0.0222391
0.0202533
0.0186321
0.0165481
0.0180053
0.021892
0.0248542
0.0215613
0.0206055
0.0223867
0.0233726
0.0233206
0.0229795
0.0220095
0.0188986
0.339464
0.141686
0.0806637
0.0549701
0.0447091
0.0355534
0.0296081
0.0284988
0.0274747
0.0256811
0.0236328
0.0205997
0.0194515
0.0171075
0.0192041
0.0247526
0.0271331
0.0233797
0.0212733
0.021352
0.0219335
0.0216742
0.0216531
0.0254943
0.0891794
0.339482
0.141492
0.0802413
0.0545479
0.044695
0.0336566
0.0267467
0.0254642
0.0263604
0.025964
0.0236338
0.0211699
0.0187565
0.0179335
0.0184387
0.0246113
0.0280078
0.0249509
0.0227361
0.021591
0.0216289
0.0221911
0.0237083
0.0326038
0.109867
0.339422
0.14157
0.0799436
0.053978
0.04409
0.0302973
0.0216028
0.0221395
0.023588
0.0241205
0.0234998
0.0211894
0.0185223
0.0190501
0.0187277
0.0260202
0.0280201
0.0266813
0.0257688
0.0257423
0.024184
0.0242373
0.0266046
0.0219856
0.0299915
0.339405
0.141735
0.0791436
0.0556739
0.0403185
0.0259002
0.0213555
0.0223355
0.0230683
0.0235207
0.0233219
0.0211132
0.0183251
0.018571
0.0189326
0.0243277
0.0279714
0.026745
0.0260875
0.0271103
0.0293158
0.0331603
0.0345295
0.0378154
0.0761896
0.33959
0.142469
0.0798486
0.0581722
0.0453771
0.0284003
0.0222475
0.02214
0.0239894
0.0238579
0.0233453
0.0212629
0.0181389
0.0178938
0.0191996
0.0242488
0.0274665
0.0251692
0.024038
0.0249012
0.0288531
0.0335396
0.0353544
0.044045
0.113034
0.340217
0.143619
0.0823751
0.0648011
0.0550423
0.0383581
0.0249583
0.0195667
0.0230758
0.0232285
0.0230757
0.0206762
0.0185596
0.0180245
0.0205787
0.0254036
0.0275482
0.0254055
0.0240292
0.0249268
0.029185
0.0299059
0.0285525
0.0539127
0.193322
0.340425
0.144053
0.0874711
0.0697849
0.0557042
0.0464179
0.0320471
0.0196828
0.021976
0.022753
0.0218845
0.0203151
0.0196906
0.0180151
0.0203411
0.0263955
0.0289974
0.0287276
0.0265661
0.0278262
0.0319857
0.0356556
0.0268825
0.0607164
0.139645
0.339686
0.143509
0.0913021
0.0730948
0.0549021
0.0434292
0.034521
0.0180804
0.0197462
0.0218417
0.0202417
0.0188037
0.0197517
0.0196102
0.0202835
0.0240791
0.0285727
0.0314961
0.0343188
0.037062
0.0398527
0.037209
0.0397155
0.0126192
0.0878336
0.325887
0.146448
0.082483
0.0619175
0.0562781
0.0577647
0.0369963
0.0208426
0.0190628
0.0231101
0.0228014
0.0201622
0.0201467
0.0213088
0.0220252
0.0241794
0.0279246
0.0306797
0.033505
0.0380861
0.0361844
0.0330261
0.0320182
0.0303098
0.0516041
0.0218699
0.0188505
0.0182013
0.0206136
0.0297904
0.0350811
0.0338457
0.0327771
0.0338846
0.0340216
0.0325168
0.0296343
0.0305286
0.0344285
0.0411839
0.0454687
0.0472786
0.0468146
0.0481055
0.0466373
0.0436547
0.0410459
0.0378929
0.0345103
0.0296856
0.021591
0.0205834
0.0196228
0.0186649
0.0178527
0.0170348
0.0161698
0.0151299
0.0138831
0.0126285
0.0134726
0.0223578
0.026796
0.0298674
0.0411324
0.0490915
0.0501262
0.0495435
0.04669
0.0422505
0.0371863
0.0306551
0.0271806
0.0360634
0.0425837
0.338491
0.138629
0.0796604
0.0533294
0.0391564
0.0311574
0.0254114
0.0218614
0.0181493
0.016304
0.0169212
0.0219125
0.0261949
0.0280101
0.0275369
0.0292171
0.0351486
0.0353635
0.0363723
0.0373199
0.0391356
0.0360542
0.0309959
0.0331946
0.0383255
0.33899
0.139733
0.0798647
0.0539461
0.0400741
0.0320952
0.0264927
0.0230278
0.0200262
0.0165975
0.0169909
0.0201027
0.0219098
0.0225456
0.0230983
0.0263503
0.0262048
0.0285218
0.0327253
0.0334842
0.0348486
0.0344286
0.0291077
0.0316453
0.034408
0.338919
0.13947
0.0797387
0.0537322
0.0400794
0.0319186
0.0264878
0.0228783
0.020447
0.0168146
0.016775
0.0176121
0.0181556
0.0187051
0.0205466
0.0242321
0.0250189
0.0271939
0.0309815
0.0318059
0.0333829
0.0324739
0.028326
0.0276615
0.0288922
0.338758
0.138937
0.0795896
0.0535708
0.0402172
0.031878
0.0268515
0.0227566
0.0202253
0.0173264
0.016421
0.016288
0.0160591
0.0162556
0.0185771
0.0227741
0.0261078
0.0260511
0.0294205
0.0308097
0.0302547
0.0304034
0.0283541
0.0257874
0.0230209
0.338679
0.138715
0.0795657
0.0535836
0.0403863
0.0320224
0.0269904
0.0227903
0.0202675
0.0174738
0.0158463
0.0148162
0.014725
0.0148538
0.0178365
0.0217337
0.0232112
0.0251512
0.0253169
0.0259324
0.0260024
0.0275044
0.0267103
0.0255247
0.0230362
0.338805
0.139139
0.0797276
0.0537795
0.0405943
0.0321224
0.0272223
0.0229696
0.0205773
0.0176669
0.0161067
0.0142841
0.0139924
0.0147196
0.0170701
0.0188968
0.0196057
0.0223374
0.023723
0.0236753
0.0234464
0.0259078
0.0264589
0.0267856
0.0248282
0.338979
0.139733
0.079867
0.0540686
0.0407475
0.0323459
0.0272583
0.0232827
0.020709
0.0181037
0.0166851
0.0147582
0.0139502
0.0148397
0.0177162
0.0186287
0.0183144
0.0209255
0.0235175
0.0236115
0.0224638
0.0244431
0.0265921
0.0270422
0.0256525
0.339064
0.139893
0.0798132
0.0542279
0.0408049
0.0326236
0.0273766
0.0238248
0.0206158
0.018482
0.0174558
0.0157043
0.0142982
0.0153109
0.0179045
0.0183757
0.0184134
0.0209316
0.023953
0.023682
0.0223188
0.0237933
0.0253704
0.0258627
0.0248146
0.339
0.139729
0.0797066
0.0542827
0.040734
0.0328148
0.0275314
0.0245356
0.0209761
0.0187063
0.0171967
0.0163404
0.0148564
0.0157136
0.0183493
0.0184631
0.0186649
0.0196546
0.021904
0.0223795
0.021759
0.0228936
0.0245872
0.0249754
0.0240705
0.338852
0.139135
0.079386
0.0540802
0.0408196
0.0329924
0.0282985
0.0252886
0.0219983
0.0194883
0.0172677
0.0171347
0.0154314
0.0161146
0.0185726
0.019447
0.0192937
0.0192616
0.0205336
0.0212843
0.0217415
0.0225719
0.0247064
0.0247261
0.0238793
0.338672
0.138559
0.0791291
0.0537228
0.0408544
0.0330943
0.0290297
0.0261885
0.0233172
0.0204702
0.0178576
0.0168949
0.0160336
0.0162634
0.0181321
0.020613
0.0199851
0.0191549
0.0199694
0.021185
0.0222163
0.0232499
0.0248593
0.0250387
0.023758
0.338577
0.138145
0.0789627
0.0537374
0.0409789
0.0339211
0.0300197
0.0276767
0.0245351
0.021609
0.0180293
0.0173203
0.0174203
0.0166416
0.0180374
0.0212097
0.0203321
0.0193855
0.0204569
0.0215837
0.0228273
0.0237985
0.0251023
0.0254817
0.0233252
0.338545
0.138194
0.0788022
0.0535719
0.0407904
0.0347264
0.0308916
0.0291149
0.0254618
0.0231635
0.0186752
0.0184704
0.0180409
0.017502
0.0184313
0.0220233
0.0207918
0.0197294
0.0206747
0.0222074
0.0232392
0.0241996
0.025124
0.0253181
0.022542
0.338759
0.138778
0.0789155
0.0537185
0.0410005
0.0362795
0.0329635
0.0305622
0.0270785
0.0242271
0.0194971
0.01977
0.0184445
0.0182358
0.0192626
0.0227893
0.0214986
0.0200261
0.0207959
0.0218636
0.0232299
0.0240288
0.0241707
0.0241327
0.0211719
0.338885
0.13956
0.0791428
0.0536357
0.0418111
0.0380387
0.035214
0.0330876
0.029237
0.0253142
0.0214242
0.0195732
0.0191672
0.0190962
0.0205713
0.0240141
0.0225518
0.0205541
0.0209081
0.0214454
0.022645
0.0230126
0.0228118
0.0227528
0.0189264
0.338977
0.139636
0.0786162
0.0534313
0.0437587
0.040345
0.0366685
0.034098
0.0319445
0.0272752
0.0226355
0.02005
0.0187118
0.0192076
0.0208241
0.0242963
0.0236288
0.0214144
0.0211587
0.0210768
0.0217643
0.0225773
0.0222604
0.0216893
0.0119304
0.339188
0.140466
0.0774524
0.0554715
0.0489232
0.0438566
0.0373428
0.033271
0.0315012
0.0295227
0.0240436
0.0203647
0.0188026
0.0196267
0.0220079
0.0262784
0.0240563
0.0223056
0.0217628
0.0218382
0.0225235
0.0235668
0.0233921
0.0247191
0.0228304
0.339584
0.141691
0.0770725
0.0634474
0.0585088
0.0481993
0.0351767
0.0318338
0.0310609
0.0285945
0.0254945
0.0215057
0.0192286
0.0201105
0.0212295
0.026078
0.0252766
0.023874
0.0241676
0.0239233
0.0253049
0.0259777
0.0258957
0.0272915
0.0291476
0.339862
0.14265
0.0845745
0.0744096
0.0687845
0.0553178
0.0353249
0.0282901
0.028852
0.0283536
0.0265792
0.0224165
0.0189973
0.0187473
0.0204637
0.026421
0.0275204
0.024191
0.0234674
0.024999
0.027828
0.0282186
0.0288041
0.0316382
0.0481045
0.340341
0.142077
0.0947376
0.0822653
0.0719686
0.0625913
0.0389972
0.0234699
0.0262289
0.0268949
0.0259181
0.0221983
0.0200545
0.0202287
0.022262
0.0253626
0.0287096
0.0261549
0.0252238
0.026629
0.0286698
0.0298965
0.0303731
0.0349985
0.0708954
0.340422
0.146258
0.0984617
0.076461
0.070583
0.0638892
0.0372681
0.0198344
0.0227011
0.0255619
0.025327
0.0220466
0.0196632
0.0197087
0.0225674
0.0259868
0.0288853
0.0297406
0.0298712
0.0297905
0.0332769
0.034913
0.033303
0.0330825
0.0536622
0.338858
0.157408
0.0831598
0.0692684
0.0622721
0.0581298
0.0305366
0.01761
0.0186523
0.0214205
0.022146
0.0210508
0.0198037
0.0202524
0.0215403
0.0238558
0.0272337
0.0296647
0.033366
0.036679
0.0396569
0.0376799
0.0378126
0.028962
0.0392094
0.320085
0.150819
0.0623084
0.0581561
0.0679055
0.0629576
0.0304415
0.0204301
0.0196781
0.0234347
0.0239946
0.0228645
0.0209946
0.0217984
0.0231348
0.0245042
0.0264726
0.0291341
0.0296922
0.0351808
0.0359949
0.033037
0.0325133
0.030848
0.03171
0.0218281
0.0183549
0.0226499
0.0357185
0.0409082
0.0414175
0.0351358
0.0347618
0.0339375
0.0371069
0.0362721
0.0340148
0.037276
0.0356333
0.0413974
0.0460438
0.0467597
0.0463147
0.0456429
0.0458752
0.0443115
0.0431805
0.0411779
0.0399827
0.0356423
0.0216058
0.0205514
0.0195732
0.0188055
0.0179497
0.0169679
0.0159899
0.0149184
0.0137512
0.0133977
0.0193898
0.0333045
0.0399362
0.0435607
0.0536324
0.0644498
0.0656377
0.0602832
0.0538385
0.0470935
0.043247
0.0390766
0.0413486
0.0511516
0.0531135
0.338192
0.139417
0.0806557
0.0533581
0.039289
0.0311431
0.0258911
0.0225984
0.0181443
0.01682
0.0195444
0.0289141
0.0336221
0.0328843
0.0293373
0.0289002
0.0303742
0.0293362
0.0345792
0.0381645
0.0407734
0.0417775
0.0437078
0.0472825
0.04601
0.339163
0.14052
0.0807212
0.0546491
0.0405918
0.0323229
0.026639
0.0235839
0.0199315
0.0174122
0.0195453
0.0242284
0.0262263
0.0252769
0.0235169
0.025115
0.026296
0.0287452
0.0322522
0.0369677
0.0391322
0.0394708
0.0411365
0.0457257
0.0465033
0.339036
0.140146
0.0805348
0.0542142
0.0403454
0.0318872
0.0266765
0.0234188
0.0205137
0.0176958
0.0185649
0.0205957
0.0212732
0.0208725
0.0209626
0.0245672
0.0255071
0.0284242
0.0312083
0.0323294
0.0339521
0.0359363
0.0382545
0.0429912
0.0440671
0.338975
0.139996
0.0805314
0.0539947
0.0402628
0.0318666
0.0267816
0.0231105
0.0202617
0.0174447
0.0178422
0.0185685
0.0185768
0.018447
0.0199349
0.0243149
0.0259327
0.0280168
0.0300743
0.0295776
0.0303082
0.0315307
0.0335846
0.0336886
0.0338506
0.339144
0.140553
0.0806797
0.0542636
0.0402626
0.0321223
0.0267235
0.0231134
0.0198048
0.0167171
0.0166056
0.0168676
0.0169244
0.0169904
0.0199068
0.0224547
0.0220229
0.023584
0.0267525
0.0276576
0.0285237
0.0309986
0.0326155
0.0313526
0.028418
0.339439
0.141462
0.0808418
0.0546236
0.0404757
0.0324265
0.0268965
0.0233642
0.0197105
0.0178376
0.016928
0.0159751
0.0159624
0.0166699
0.0182702
0.0200926
0.0194594
0.0213253
0.0235599
0.0246909
0.026362
0.0299302
0.031325
0.0317668
0.02791
0.3396
0.141859
0.0807769
0.0549043
0.0406094
0.0328252
0.027135
0.0234576
0.0204449
0.0190261
0.0177328
0.0164805
0.0157951
0.0167915
0.0181504
0.0193964
0.0188983
0.021426
0.0237107
0.0239793
0.0248393
0.0292483
0.0315133
0.032047
0.0282348
0.3395
0.141541
0.0806394
0.0549844
0.0408003
0.0328526
0.0277627
0.0234353
0.0195007
0.0183493
0.0181967
0.0174521
0.0161045
0.0171059
0.0183514
0.0189735
0.0190338
0.020305
0.022344
0.0230098
0.0237252
0.0279918
0.0299008
0.0298074
0.0273106
0.339469
0.141592
0.0809028
0.0552245
0.0410418
0.0328939
0.0284764
0.0235349
0.0205852
0.019989
0.0181431
0.0183576
0.0167426
0.0175031
0.0194762
0.0197704
0.0201162
0.0204028
0.0211973
0.0219788
0.0236982
0.026529
0.0271937
0.0272907
0.0262615
0.339523
0.141868
0.0811988
0.0551798
0.0415309
0.0327888
0.0293512
0.0236906
0.0212887
0.0196728
0.0198406
0.0185225
0.0176353
0.0181809
0.0198182
0.0208988
0.0208053
0.0211227
0.0206842
0.0219699
0.0244514
0.0264525
0.0263941
0.0266298
0.0252218
0.339583
0.142232
0.0815544
0.0551847
0.0419007
0.0329226
0.0299514
0.0254338
0.0229916
0.0208954
0.0207486
0.0193237
0.0186608
0.018622
0.0197194
0.0211513
0.0225529
0.0213886
0.0211796
0.022559
0.0250651
0.0263215
0.0259576
0.0261378
0.0243242
0.339546
0.142048
0.0814274
0.0551727
0.0420287
0.0341175
0.0316371
0.0280243
0.0244464
0.0226107
0.0214467
0.0205419
0.0199137
0.0195559
0.0201752
0.0222958
0.0235376
0.0222852
0.0222322
0.0237412
0.0255512
0.0257496
0.0261816
0.0257495
0.0237031
0.339434
0.14169
0.0810228
0.0547233
0.042002
0.0356331
0.0335558
0.0302734
0.0262973
0.0240455
0.0236136
0.0219853
0.0213933
0.0207122
0.0211498
0.0233146
0.0241501
0.0222193
0.0224324
0.0240382
0.0255893
0.0258188
0.0257854
0.02536
0.023148
0.339383
0.141203
0.0803268
0.0545165
0.0437194
0.0381602
0.0361149
0.0321373
0.0275199
0.024221
0.0232691
0.0223071
0.0222433
0.0216027
0.0218102
0.0239634
0.0238905
0.0220871
0.0221308
0.0235848
0.0250181
0.0255385
0.0251751
0.024518
0.0222654
0.33916
0.14069
0.0790036
0.0555215
0.0488335
0.0416713
0.0379683
0.0330136
0.0278326
0.0248365
0.0232453
0.0220375
0.0220032
0.0219605
0.0222766
0.0246359
0.0241665
0.0217491
0.0215773
0.0229308
0.0241602
0.0246035
0.0239569
0.0231148
0.0208685
0.339032
0.139925
0.0761516
0.0614538
0.056724
0.0470618
0.0402939
0.0357259
0.0294664
0.0250443
0.0229547
0.0222368
0.0222135
0.0224887
0.0229333
0.0249807
0.0244469
0.0234271
0.0225031
0.0228821
0.0236363
0.0236517
0.02259
0.0217142
0.0191671
0.339354
0.140368
0.0793674
0.0713355
0.0669881
0.0569685
0.0445785
0.0378243
0.0326728
0.0264345
0.0234312
0.0220232
0.0221231
0.0223248
0.0239558
0.0264468
0.0250927
0.0237012
0.0235579
0.0239594
0.0240053
0.0232601
0.0218192
0.0204348
0.0183605
0.339574
0.140149
0.0901412
0.081571
0.0744826
0.067321
0.0525633
0.0403346
0.0346753
0.0286965
0.0247286
0.0226393
0.0210053
0.0222763
0.0232166
0.0262766
0.0259858
0.0250171
0.0247892
0.0250585
0.0257579
0.0242638
0.0221619