/*--------------------------------*- C++ -*----------------------------------*\
  =========                 |
  \\      /  F ield         | OpenFOAM: The Open Source CFD Toolbox
   \\    /   O peration     | Website:  https://openfoam.org
    \\  /    A nd           | Version:  11
     \\/     M anipulation  |
\*---------------------------------------------------------------------------*/
FoamFile
{
    format      ascii;
    class       volScalarField;
    location    "20";
    object      p;
}
// * * * * * * * * * * * * * * * * * * * * * * * * * * * * * * * * * * * * * //

dimensions      [0 2 -2 0 0 0 0];

internalField   nonuniform List<scalar> 
17196
(
0.211788
0.249153
0.184203
0.0593583
0.0768914
0.225616
0.447765
0.625427
0.65373
0.444977
0.159132
0.162625
0.243813
0.212183
0.137954
0.0623279
0.170946
0.251583
0.200105
0.206468
0.200162
0.124768
0.121414
0.126675
0.0576608
0.206775
0.233873
0.16854
0.0737625
0.0517798
0.190084
0.46117
0.682644
0.74368
0.557378
0.164241
-0.0104009
0.0270083
0.0991726
0.112373
0.08287
0.156641
0.254334
0.15659
0.199061
0.225076
0.140907
0.111395
0.102862
0.050957
0.204285
0.223327
0.173155
0.0867341
0.00819855
0.107916
0.409908
0.671981
0.808504
0.689647
0.343358
0.104367
-0.0305461
-0.00917147
0.0178316
0.0952566
0.220368
0.270017
0.145047
0.150638
0.214765
0.192055
0.14173
0.103067
0.0770555
0.203549
0.226581
0.173352
0.0664343
-0.0397496
-0.0408045
0.19448
0.508929
0.748504
0.701158
0.500682
0.338062
0.119941
0.00576597
-0.0345932
0.053123
0.234008
0.273465
0.173167
0.112383
0.163575
0.175784
0.127314
0.0949949
0.0973241
0.203643
0.232667
0.153273
0.0412262
-0.0457516
-0.164927
-0.086529
0.272676
0.618602
0.613354
0.50265
0.442188
0.401599
0.161954
-0.0378553
-0.0325659
0.146501
0.204866
0.187391
0.158302
0.182818
0.204523
0.163097
0.0789538
0.0799063
0.204128
0.23478
0.125754
0.0301278
0.0087484
-0.175789
-0.247907
0.107264
0.519872
0.51713
0.396511
0.347229
0.537799
0.360396
0.0721606
-0.0311162
0.0802557
0.113746
0.13019
0.179783
0.240595
0.297949
0.270881
0.109477
0.0879866
0.205196
0.235095
0.0969932
0.0220696
0.0957124
-0.102611
-0.246345
0.0773535
0.491927
0.461222
0.307841
0.205591
0.439225
0.431701
0.221692
0.0654297
0.046878
-0.00346431
-0.015707
0.0913268
0.243323
0.351964
0.344133
0.180769
0.113516
0.207736
0.240325
0.0796861
0.0172353
0.172863
-0.030555
-0.176537
0.144068
0.486234
0.421564
0.295805
0.20801
0.29534
0.374211
0.324097
0.177307
0.00816822
-0.137632
-0.181002
-0.0790168
0.126466
0.303738
0.312206
0.185351
0.126368
0.211448
0.248242
0.0758969
0.0223584
0.194114
-0.0278364
-0.153445
0.19556
0.436853
0.372724
0.337835
0.329385
0.256154
0.315536
0.360596
0.212609
-0.049492
-0.232252
-0.277782
-0.214377
-0.0449754
0.160847
0.213845
0.157172
0.13122
0.216544
0.256151
0.0715367
0.0392027
0.168838
-0.105139
-0.217036
0.157824
0.340727
0.337801
0.410718
0.480823
0.336738
0.339064
0.338865
0.163465
-0.0837819
-0.217655
-0.271093
-0.231714
-0.113193
0.0199955
0.0968668
0.13535
0.123196
0.222729
0.267238
0.0660619
0.0500176
0.14129
-0.207852
-0.324781
0.0591669
0.245663
0.333982
0.491857
0.610061
0.482756
0.411992
0.278983
0.100269
-0.0826959
-0.195823
-0.28246
-0.26717
-0.135773
-0.0522192
-0.0049897
0.0687918
0.0765358
0.230589
0.277228
0.0586684
0.0493822
0.120045
-0.287062
-0.432853
-0.0651686
0.167873
0.337836
0.537077
0.657042
0.593179
0.462866
0.211843
0.0633238
-0.0671978
-0.230451
-0.421203
-0.439561
-0.245644
-0.121773
-0.104954
-0.00216008
0.0235932
0.240183
0.29043
0.0641148
0.034702
0.0854514
-0.318533
-0.52608
-0.195502
0.101719
0.327479
0.526485
0.605708
0.602255
0.448994
0.216205
0.0840531
-0.0432773
-0.263174
-0.568758
-0.686577
-0.472124
-0.241592
-0.19332
-0.0895333
-0.0345019
0.252282
0.304037
0.0821866
0.0247984
0.0361103
-0.307389
-0.591164
-0.323673
0.0373467
0.300403
0.46785
0.493965
0.508049
0.409255
0.285017
0.163477
0.00674584
-0.230848
-0.573067
-0.804694
-0.671853
-0.34858
-0.249523
-0.169853
-0.0572477
0.265941
0.319929
0.128209
0.0591973
0.00643843
-0.258197
-0.570573
-0.401498
0.00409136
0.294401
0.418268
0.410718
0.41459
0.391383
0.394797
0.295131
0.112736
-0.102359
-0.397103
-0.711719
-0.757538
-0.42486
-0.264067
-0.239145
-0.0811323
0.28105
0.332625
0.165144
0.115197
0.02956
-0.164478
-0.455529
-0.384826
0.0228069
0.32726
0.41144
0.389104
0.351825
0.385631
0.470724
0.401791
0.21881
0.0376407
-0.184778
-0.527519
-0.777168
-0.527819
-0.296728
-0.394492
-0.139315
0.296284
0.348274
0.189597
0.14241
0.0840001
-0.0150915
-0.252032
-0.249202
0.106482
0.405875
0.452566
0.419086
0.333284
0.381876
0.48413
0.438418
0.273523
0.0930014
-0.0902975
-0.378004
-0.726342
-0.647375
-0.367313
-0.488692
-0.212937
0.310867
0.362374
0.203525
0.133649
0.171031
0.122807
-0.0652896
-0.0902095
0.199718
0.483334
0.505985
0.440072
0.345066
0.386164
0.446204
0.389957
0.232008
0.0287273
-0.160643
-0.357997
-0.659526
-0.738621
-0.477014
-0.495449
-0.285574
0.322391
0.378227
0.215764
0.154554
0.31622
0.240892
0.0671436
0.0579655
0.300244
0.563984
0.571032
0.467906
0.409395
0.454545
0.436579
0.328007
0.152879
-0.0669555
-0.284954
-0.427703
-0.632585
-0.773181
-0.585721
-0.503964
-0.384819
0.329588
0.384058
0.220509
0.196455
0.426682
0.352545
0.205333
0.234466
0.43135
0.646319
0.640433
0.517894
0.526477
0.575959
0.462492
0.275649
0.0778721
-0.146097
-0.386435
-0.535946
-0.664569
-0.774414
-0.642858
-0.518856
-0.484301
0.332636
0.370452
0.199175
0.214564
0.449389
0.417683
0.330648
0.393864
0.541257
0.709992
0.715568
0.635723
0.680687
0.696988
0.491671
0.249308
0.0411105
-0.1865
-0.453291
-0.653288
-0.735878
-0.753395
-0.615344
-0.448734
-0.40597
0.33564
0.342218
0.146823
0.193874
0.392917
0.401264
0.342165
0.399368
0.547912
0.72984
0.804703
0.743049
0.791938
0.763933
0.510623
0.238107
0.0203845
-0.208057
-0.496269
-0.730037
-0.777406
-0.699593
-0.537668
-0.341733
-0.204774
0.343754
0.332532
0.0709893
0.0977568
0.276914
0.292118
0.264712
0.333275
0.529957
0.750087
0.880381
0.843266
0.837161
0.76738
0.494359
0.20219
-0.0196052
-0.243834
-0.521214
-0.726598
-0.683254
-0.557024
-0.443001
-0.253689
-0.0499885
0.359961
0.380771
0.0958394
0.0348404
0.156571
0.179123
0.184407
0.280538
0.522428
0.8013
0.972808
0.946347
0.868632
0.731194
0.432913
0.144314
-0.0434927
-0.235801
-0.458074
-0.556642
-0.467715
-0.368223
-0.334671
-0.186312
-0.0186195
0.38606
0.408403
0.214617
0.108703
0.133161
0.114276
0.105188
0.192542
0.447632
0.788753
1.01297
0.996214
0.82181
0.617845
0.303668
0.0404916
-0.0840514
-0.183185
-0.311171
-0.368372
-0.364421
-0.322756
-0.302175
-0.144955
0.00965605
0.183848
0.17118
0.058661
-0.0176992
0.114638
0.309658
0.33919
0.283755
0.245128
0.100431
0.130182
0.292678
0.17968
0.120361
0.084507
0.0656388
0.0756264
0.0676188
0.0572882
0.0944043
0.072133
-0.0177856
-0.050267
0.00859701
0.00688586
0.179036
0.147913
0.0125105
-0.0507197
0.0932275
0.343028
0.399464
0.341098
0.298114
0.131235
0.0349158
0.10918
0.0130445
0.0365292
0.0212475
0.0240644
0.0625548
-0.0116654
-0.0529617
0.0693424
0.0984883
0.0028289
-0.0602911
-0.0568472
-0.0358118
0.1776
0.15261
-0.0041627
-0.067094
0.0393779
0.24801
0.376883
0.392232
0.392385
0.301306
0.189136
0.138535
-0.0188419
-0.0525389
-0.0937264
0.00420168
0.127959
-0.00101127
-0.0893539
0.0539853
0.155206
0.0706872
-0.0066618
-0.031687
-0.0188047
0.176856
0.155937
-0.0177889
-0.0699129
-0.00560472
0.132246
0.296613
0.367415
0.407835
0.400979
0.330084
0.257408
0.04293
-0.162567
-0.240702
-0.14689
0.0124641
-0.0336483
-0.0987469
0.00701851
0.121748
0.0754621
-0.0351091
-0.0881617
-0.0308231
0.175668
0.151396
-0.0271116
-0.0453227
0.0231347
0.135028
0.245056
0.280726
0.342761
0.430348
0.404618
0.319018
0.194012
-0.084988
-0.287991
-0.325478
-0.172324
-0.0968498
-0.118599
-0.0262501
0.106941
0.119789
-0.00168608
-0.126254
-0.0244921
0.174328
0.14649
-0.0493203
-0.00975442
0.104314
0.166398
0.16066
0.149527
0.278335
0.444573
0.479932
0.353857
0.331765
0.105975
-0.201124
-0.378723
-0.256209
-0.144546
-0.163824
-0.0588293
0.0928955
0.139885
0.0648203
-0.0704952
-0.00444537
0.173044
0.142421
-0.0816307
0.0130428
0.192025
0.158588
0.0233498
0.0418223
0.292138
0.483992
0.558477
0.417072
0.369333
0.267266
-0.0502278
-0.312879
-0.266489
-0.182382
-0.207379
-0.1166
0.0463396
0.115656
0.0853046
-0.00463256
0.0145019
0.172344
0.142775
-0.108958
0.00603237
0.241497
0.124888
-0.0928432
0.00872188
0.359638
0.533806
0.595268
0.487596
0.332399
0.321131
0.0798846
-0.164766
-0.238247
-0.19832
-0.179134
-0.125188
-0.0214645
0.074232
0.0604508
0.0110454
0.0211066
0.172189
0.146048
-0.133459
-0.0252644
0.213948
0.0622479
-0.162607
0.0239412
0.414569
0.54565
0.569831
0.507013
0.30072
0.282929
0.205579
0.0035138
-0.204174
-0.246071
-0.15211
-0.0258553
0.00872713
0.0387504
0.0231275
0.0174534
0.0229746
0.172609
0.153027
-0.165373
-0.0610333
0.133321
-0.0310048
-0.211315
0.0479311
0.418427
0.509733
0.528473
0.502268
0.326833
0.234976
0.276217
0.0745338
-0.203107
-0.337639
-0.266319
-0.0204364
0.150848
0.100454
0.00322091
0.0359439
0.0331752
0.172974
0.154401
-0.187413
-0.0808182
0.0385004
-0.154438
-0.259657
0.062607
0.392456
0.483584
0.54144
0.542429
0.400694
0.253111
0.230573
0.0424771
-0.216054
-0.45619
-0.577884
-0.324649
0.0529279
0.0829181
0.0125118
0.0647106
0.0313239
0.173858
0.149422
-0.187471
-0.0800496
-0.0546808
-0.295804
-0.310999
0.0684555
0.368302
0.484503
0.586295
0.60383
0.484648
0.295307
0.179697
0.01595
-0.224383
-0.602536
-0.988768
-0.863479
-0.39109
-0.211089
-0.10832
0.0489659
0.0169372
0.176101
0.142091
-0.171608
-0.0670921
-0.144939
-0.449102
-0.388205
0.0410108
0.339686
0.465488
0.584287
0.610931
0.524176
0.327521
0.17631
0.0273476
-0.213258
-0.638484
-1.17035
-1.27035
-0.907457
-0.635049
-0.357195
-0.0719904
-0.00961063
0.181139
0.142749
-0.143975
-0.0448309
-0.214724
-0.601965
-0.546426
-0.0844382
0.250782
0.371055
0.486573
0.527244
0.498635
0.340248
0.213171
0.0754988
-0.169322
-0.536531
-1.03324
-1.3706
-1.23229
-0.924495
-0.581862
-0.24193
-0.0622024
0.188858
0.159655
-0.112334
0.004298
-0.234783
-0.729374
-0.797409
-0.34797
0.0427667
0.202304
0.334239
0.400673
0.445442
0.357055
0.268934
0.128858
-0.108739
-0.39396
-0.736623
-1.16486
-1.26381
-1.02049
-0.675381
-0.387003
-0.109928
0.197933
0.176391
-0.0720274
0.0799112
-0.187484
-0.794093
-1.03818
-0.716281
-0.250029
0.0343265
0.206659
0.292578
0.379282
0.372235
0.306067
0.137808
-0.106246
-0.358326
-0.54883
-0.875984
-1.09899
-1.01556
-0.71224
-0.488215
-0.157375
0.206275
0.187461
-0.0450133
0.112335
-0.0971132
-0.731226
-1.1416
-1.03
-0.475913
-0.0361997
0.16607
0.254344
0.33882
0.376234
0.319929
0.146526
-0.114749
-0.411112
-0.56936
-0.749979
-0.927794
-0.967489
-0.771236
-0.534111
-0.221782
0.21322
0.193291
-0.0640452
0.0319028
-0.0479084
-0.518287
-1.08518
-1.14802
-0.519335
0.0260664
0.218458
0.290018
0.339323
0.376399
0.317184
0.169721
-0.0892225
-0.440751
-0.671018
-0.789118
-0.87208
-0.952274
-0.857387
-0.594758
-0.31412
0.217698
0.201625
-0.12606
-0.119798
-0.0740246
-0.35786
-0.959365
-1.00723
-0.338982
0.217002
0.360023
0.407232
0.41834
0.437305
0.355835
0.222052
-0.0318554
-0.405147
-0.727219
-0.878819
-0.928376
-0.995073
-0.918667
-0.639867
-0.475024
0.220507
0.205784
-0.236604
-0.305516
-0.139198
-0.304793
-0.730076
-0.603217
0.00476903
0.438608
0.516114
0.532589
0.548782
0.553746
0.439177
0.27577
0.0143382
-0.347113
-0.72709
-0.965992
-1.04402
-1.0754
-0.930604
-0.595998
-0.671279
0.221863
0.20042
-0.399594
-0.458109
-0.131018
-0.155234
-0.318097
-0.0758565
0.355533
0.587196
0.576458
0.59788
0.682674
0.658578
0.488226
0.277847
0.0211596
-0.305561
-0.708326
-1.02243
-1.15036
-1.14453
-0.888376
-0.424615
-0.404658
0.225371
0.178217
-0.558877
-0.468917
0.0076422
0.0505501
0.0215741
0.238642
0.530043
0.628035
0.595
0.663282
0.788879
0.728813
0.473057
0.211542
-0.0340821
-0.327976
-0.720042
-1.03045
-1.16348
-1.13362
-0.772744
-0.210426
0.105364
0.237035
0.171453
-0.668275
-0.488508
0.156264
0.226988
0.169436
0.312633
0.58008
0.693321
0.712828
0.79213
0.859224
0.764441
0.458889
0.160455
-0.0944083
-0.380315
-0.736074
-0.983652
-1.03084
-0.972968
-0.595611
-0.0719258
0.323516
0.266895
0.233269
-0.5666
-0.56195
0.0975021
0.250568
0.21706
0.346956
0.613363
0.832874
0.939823
0.954039
0.881277
0.756324
0.48034
0.20671
-0.0372451
-0.320252
-0.627188
-0.78682
-0.719864
-0.653997
-0.421568
-0.0210186
0.140536
0.310221
0.301399
-0.227488
-0.374006
0.0677051
0.209253
0.191846
0.290372
0.491551
0.768143
0.983729
0.983867
0.792332
0.631045
0.424116
0.225925
0.0241527
-0.231854
-0.474964
-0.591129
-0.52175
-0.475017
-0.384251
-0.0940249
0.102873
0.189072
0.176293
0.0970813
0.180795
0.412938
0.519395
0.416616
0.300205
0.276455
0.245337
0.429545
0.422889
0.157962
0.105614
0.127452
0.243332
0.271402
0.122219
-0.0752844
-0.0217592
0.0906544
0.0547604
-0.0167698
0.276156
0.178577
0.186424
0.1731
0.0379121
0.14206
0.4286
0.551631
0.441142
0.330142
0.316985
0.231633
0.290979
0.263347
0.121596
0.122916
0.0914246
0.206077
0.278535
0.133335
0.0158484
0.0381489
0.0823414
0.0385804
-0.0467342
0.192617
0.128096
0.186244
0.183309
0.0198622
0.103612
0.388901
0.534039
0.443542
0.305909
0.271231
0.227513
0.285534
0.27258
0.161228
0.133486
0.0100762
0.0907316
0.16359
0.0358015
0.0571324
0.137267
0.128895
0.0497686
-0.00477905
0.162533
0.0383087
0.18691
0.193836
0.0281525
0.0862489
0.380626
0.541837
0.452239
0.312664
0.278692
0.25911
0.317041
0.351303
0.217253
0.030834
-0.20215
-0.198951
-0.0560171
-0.046112
0.0270132
0.138707
0.119937
0.0277342
-0.0171989
0.0435762
-0.0614113
0.187455
0.202181
0.0299078
0.107271
0.426964
0.571946
0.42864
0.270225
0.256599
0.27008
0.36949
0.381513
0.255584
0.0251054
-0.309708
-0.450284
-0.251592
-0.0657154
0.0176571
0.0880483
0.0816686
0.046829
0.0130427
-0.0179737
-0.0489281
0.187516
0.21488
-0.00396134
0.131534
0.464943
0.549187
0.318978
0.135862
0.160231
0.25031
0.401609
0.381279
0.275754
0.0994592
-0.264673
-0.484285
-0.321272
-0.0634745
0.0351071
0.00767337
-0.0769981
-0.0491627
0.00283821
-0.0181712
-0.0010998
0.186253
0.222879
-0.0667533
0.160092
0.503318
0.481309
0.166977
0.0190582
0.102283
0.270538
0.447466
0.429912
0.320151
0.21038
-0.0880447
-0.381618
-0.319822
-0.0841452
0.0682068
-0.0647786
-0.325357
-0.25896
-0.117665
-0.0361523
0.0164524
0.183627
0.223157
-0.116493
0.184002
0.538321
0.407049
0.0308369
-0.056591
0.120992
0.308537
0.444296
0.464839
0.361804
0.319281
0.116325
-0.276722
-0.352112
-0.187016
0.00317099
-0.0665849
-0.462537
-0.446498
-0.2643
-0.0757754
0.00998302
0.179656
0.211044
-0.131328
0.193241
0.547876
0.339292
-0.0618306
-0.0994496
0.147261
0.293164
0.35764
0.399704
0.382906
0.373047
0.226384
-0.177432
-0.373035
-0.341533
-0.189311
-0.0413305
-0.440218
-0.538451
-0.354401
-0.122216
-0.000841799
0.175053
0.192262
-0.140554
0.188369
0.523927
0.264548
-0.136928
-0.134663
0.13424
0.222434
0.269202
0.307332
0.362166
0.372504
0.274806
-0.106378
-0.374596
-0.499832
-0.470895
-0.1386
-0.383551
-0.632697
-0.455761
-0.1762
-0.00148357
0.170173
0.170156
-0.153513
0.1813
0.468854
0.174407
-0.203962
-0.16148
0.106081
0.168163
0.250055
0.323962
0.389994
0.390031
0.354307
0.00302373
-0.331997
-0.581479
-0.774426
-0.441664
-0.409576
-0.723302
-0.566649
-0.217861
0.0109394
0.165831
0.144057
-0.169726
0.157208
0.388128
0.0769532
-0.249534
-0.155312
0.0976802
0.171594
0.302892
0.439447
0.478334
0.418816
0.405525
0.077322
-0.324638
-0.657905
-1.02053
-0.873138
-0.618058
-0.753387
-0.537606
-0.221235
0.0209878
0.163311
0.136994
-0.176404
0.0833593
0.270217
-0.00285077
-0.245618
-0.103953
0.133748
0.243302
0.40614
0.57582
0.566659
0.450331
0.363663
0.0514945
-0.358008
-0.736133
-1.15778
-1.16225
-0.897606
-0.814618
-0.494722
-0.252839
0.0110795
0.16184
0.122545
-0.17711
0.00294246
0.113075
-0.086412
-0.202323
-0.0304859
0.219893
0.357906
0.484457
0.638844
0.618269
0.498458
0.331688
0.0265559
-0.366882
-0.706123
-1.13791
-1.30097
-1.03563
-0.813793
-0.502275
-0.261002
-0.00441802
0.161728
0.113641
-0.181086
-0.0131328
-0.0131305
-0.214305
-0.230162
-0.0331021
0.247294
0.41699
0.471995
0.591354
0.628875
0.553671
0.316618
-0.032321
-0.436357
-0.693845
-0.998613
-1.25933
-1.05387
-0.75103
-0.503239
-0.276328
-0.0168846
0.163014
0.119029
-0.203609
0.00302385
-0.0299396
-0.331491
-0.403236
-0.241118
0.112867
0.373047
0.389083
0.470541
0.574301
0.560846
0.310653
-0.101891
-0.561301
-0.789317
-0.962297
-1.15365
-1.00376
-0.696751
-0.504868
-0.30141
-0.0304605
0.163863
0.118526
-0.231936
0.00168295
-0.0113068
-0.386229
-0.637836
-0.568089
-0.109579
0.285029
0.327216
0.376984
0.493782
0.521512
0.317864
-0.0846277
-0.565845
-0.875045
-1.05045
-1.14952
-0.957799
-0.663239
-0.572508
-0.355096
-0.049071
0.163506
0.122677
-0.281684
-0.0729454
-0.040908
-0.391752
-0.786052
-0.815873
-0.289563
0.235838
0.340846
0.349814
0.40853
0.432172
0.314862
0.0114484
-0.401606
-0.782638
-1.05113
-1.15861
-0.977303
-0.715762
-0.702066
-0.428592
-0.060836
0.160733
0.133004
-0.386144
-0.269809
-0.130599
-0.309081
-0.72786
-0.810544
-0.319641
0.264248
0.45028
0.420982
0.39902
0.412102
0.394426
0.191831
-0.168192
-0.573005
-0.929231
-1.13542
-1.06486
-0.838054
-0.796883
-0.458585
-0.0527845
0.155635
0.124801
-0.589643
-0.667422
-0.327827
-0.19395
-0.504923
-0.583486
-0.206388
0.33614
0.58489
0.560294
0.506883
0.534099
0.552718
0.387655
0.0055435
-0.427965
-0.828543
-1.11413
-1.17106
-0.971198
-0.828857
-0.455827
-0.0202404
0.149168
0.0815082
-0.927053
-1.20209
-0.600771
-0.180373
-0.319912
-0.334322
-0.0392206
0.372306
0.622216
0.656348
0.629027
0.669757
0.657057
0.462839
0.0653324
-0.378214
-0.792941
-1.09613
-1.21618
-1.0764
-0.835009
-0.428922
0.0704935
0.150565
0.0282515
-1.28852
-1.58446
-0.724936
-0.233754
-0.244266
-0.110021
0.142245
0.361356
0.558636
0.673865
0.677173
0.688867
0.630508
0.418402
0.0641739
-0.349581
-0.744938
-1.02735
-1.16382
-1.11642
-0.806181
-0.353741
0.185004
0.177914
0.0538289
-1.46737
-1.77684
-0.690697
-0.24101
-0.197961
0.00933594
0.234763
0.343141
0.502748
0.666292
0.67191
0.644482
0.556341
0.356788
0.0594543
-0.303638
-0.656934
-0.8928
-1.00972
-1.01079
-0.652142
-0.146893
0.130502
0.244203
0.194572
-1.25352
-1.72464
-0.646891
-0.210619
-0.170319
0.00719917
0.23453
0.405204
0.530767
0.666444
0.668884
0.642595
0.583793
0.407955
0.139417
-0.193684
-0.517084
-0.712517
-0.793256
-0.757585
-0.402687
0.0981968
0.157796
0.330648
0.308446
-0.716115
-1.22536
-0.479698
-0.135965
-0.184399
-0.104061
0.0862012
0.320048
0.450434
0.539161
0.557773
0.590937
0.593726
0.476855
0.245763
-0.059919
-0.362666
-0.550958
-0.617131
-0.552091
-0.286773
0.0838992
0.15845
0.203446
0.207871
0.112395
0.177374
0.337235
0.40797
0.405876
0.367893
0.313475
0.262045
0.362639
0.1986
-0.00462959
-0.103279
-0.0928398
0.0889856
0.139768
0.027446
-0.165998
-0.14967
-0.0166434
-0.0458309
-0.16549
-0.0925658
-0.211212
0.199794
0.201353
0.0504555
0.148939
0.368781
0.430895
0.396659
0.313967
0.274108
0.22781
0.231872
0.0581259
-0.125563
-0.201304
-0.22598
0.00098973
0.128559
0.13936
-0.0388253
-0.134082
-0.0874339
-0.119884
-0.226494
-0.0297669
-0.227513
0.198429
0.203023
0.00830571
0.125004
0.421556
0.47554
0.375427
0.238325
0.197903
0.151692
0.209794
0.0940847
-0.0910416
-0.17819
-0.310127
-0.0996973
0.0521701
0.0776442
-0.0536978
-0.160655
-0.150615
-0.150221
-0.195734
0.0198681
-0.306071
0.198135
0.213571
-0.0157955
0.129094
0.463753
0.480199
0.287009
0.215012
0.22672
0.181234
0.243873
0.178912
0.00424662
-0.117007
-0.38993
-0.28846
-0.0611391
0.0188642
-0.159097
-0.289346
-0.286056
-0.221696
-0.180255
0.0130602
-0.0961067
0.19769
0.231731
-0.0526504
0.15544
0.484771
0.468315
0.220298
0.244941
0.33721
0.23453
0.245703
0.260269
0.110279
-0.0388623
-0.366972
-0.42957
-0.11085
0.0701537
-0.218432
-0.451089
-0.44374
-0.293104
-0.181975
-0.0869726
0.0604447
0.194878
0.236038
-0.0854278
0.196149
0.481907
0.443998
0.15255
0.213473
0.363283
0.240228
0.201445
0.26506
0.182845
0.0398165
-0.239363
-0.426805
-0.143974
0.087167
-0.205289
-0.565343
-0.64199
-0.447706
-0.265333
-0.207418
0.0482474
0.189084
0.212386
-0.0831698
0.23832
0.464162
0.3935
0.0997984
0.152777
0.347677
0.285484
0.236031
0.289305
0.241706
0.112245
-0.115033
-0.392132
-0.227364
-0.0324313
-0.206804
-0.639328
-0.890532
-0.71613
-0.450018
-0.299861
-0.0111889
0.18264
0.182464
-0.045897
0.245954
0.452966
0.331791
0.0510421
0.0867456
0.302538
0.33156
0.307481
0.32518
0.273161
0.175086
-0.0206074
-0.419533
-0.337185
-0.252647
-0.322575
-0.672676
-1.03944
-0.987875
-0.643645
-0.365141
-0.0332079
0.177906
0.168087
-0.00222243
0.229972
0.455514
0.278159
-0.00566575
0.0218338
0.220584
0.306389
0.319083
0.336742
0.311662
0.251844
0.0455656
-0.479227
-0.504106
-0.495662
-0.504103
-0.6853
-1.05263
-1.09917
-0.762134
-0.361468
-0.0135872
0.175479
0.171912
0.0103641
0.246153
0.447556
0.211946
-0.0791847
-0.0369407
0.155721
0.246395
0.278482
0.32196
0.343843
0.341428
0.133482
-0.48008
-0.668756
-0.729729
-0.751842
-0.732589
-0.977584
-1.03464
-0.720949
-0.309549
0.00178271
0.175152
0.19242
-0.00253812
0.271475
0.418562
0.102681
-0.173433
-0.0910939
0.128598
0.203762
0.217733
0.305339
0.380374
0.350868
0.159172
-0.465719
-0.691842
-0.758933
-0.988633
-0.903862
-0.890873
-0.887547
-0.591795
-0.2767
0.0101939
0.176186
0.217946
-0.0176004
0.265012
0.374198
-0.0237337
-0.28393
-0.151947
0.0995275
0.160139
0.148942
0.301441
0.399492
0.316255
0.0999984
-0.510992
-0.794935
-0.745638
-1.08439
-1.14025
-0.94644
-0.80932
-0.479464
-0.239887
0.0214989
0.177325
0.237354
-0.0425991
0.191593
0.279361
-0.118186
-0.346907
-0.206772
0.0346982
0.0974968
0.141953
0.344074
0.3909
0.324696
0.142014
-0.403879
-0.825522
-0.854324
-1.1227
-1.31364
-1.03145
-0.731215
-0.419299
-0.237931
0.0212738
0.17746
0.245907
-0.0591989
0.081743
0.133557
-0.161046
-0.305547
-0.185014
0.0233426
0.114818
0.225404
0.430682
0.434094
0.402752
0.229952
-0.225536
-0.744303
-0.936408
-1.17461
-1.44354
-1.09147
-0.653701
-0.40289
-0.250582
0.0323217
0.175507
0.227746
-0.117973
0.00544979
0.0176907
-0.185102
-0.23031
-0.114565
0.0945992
0.225764
0.301798
0.456777
0.487486
0.480491
0.255524
-0.175043
-0.782612
-1.04678
-1.2208
-1.48128
-1.17048
-0.672131
-0.465045
-0.263259
0.0412867
0.172953
0.213548
-0.199454
-0.0766446
-0.0925301
-0.241478
-0.229369
-0.0888101
0.132999
0.26521
0.255659
0.344847
0.454676
0.492338
0.321901
-0.167232
-0.880844
-1.11353
-1.26632
-1.46867
-1.25042
-0.777017
-0.567409
-0.272424
0.0330811
0.169344
0.209536
-0.231387
-0.148937
-0.226897
-0.404389
-0.33305
-0.116509
0.117054
0.223118
0.153573
0.207582
0.383527
0.465868
0.384016
-0.0915895
-0.816773
-1.09464
-1.25937
-1.40559
-1.26322
-0.812331
-0.601652
-0.321923
0.0133269
0.16233
0.191425
-0.259779
-0.233611
-0.3872
-0.550316
-0.383958
-0.112019
0.0962452
0.174222
0.104305
0.123483
0.287772
0.383848
0.340437
0.0158941
-0.54828
-0.916628
-1.15917
-1.296
-1.19683
-0.813942
-0.646774
-0.377641
0.0147184
0.151781
0.165975
-0.388621
-0.538702
-0.570503
-0.444421
-0.172987
-0.0198825
0.0645047
0.167796
0.165801
0.140674
0.259748
0.34464
0.343274
0.164102
-0.211101
-0.643823
-0.969046
-1.1496
-1.11735
-0.849411
-0.694398
-0.403704
0.042809
0.139101
0.110392
-0.736403
-1.26176
-0.888645
-0.145934
0.131244
0.0220138
0.0124409
0.195025
0.287565
0.258611
0.354134
0.445153
0.497034
0.361265
0.0160724
-0.430045
-0.798036
-1.02563
-1.0818
-0.890579
-0.667088
-0.383483
0.0590206
0.128977
0.0010591
-1.32703
-2.29374
-1.44286
-0.127094
0.0845346
-0.0782969
0.00328427
0.218168
0.333369
0.368961
0.463991
0.582656
0.631303
0.458248
0.0795661
-0.330158
-0.684241
-0.940796
-1.06082
-0.90442
-0.609314
-0.336623
0.0659474
0.148558
-0.0865972
-1.84339
-2.96729
-1.91885
-0.56682
-0.294935
-0.224086
-0.0262083
0.172373
0.284233
0.358427
0.461369
0.5833
0.619459
0.424209
0.0612286
-0.289306
-0.591873
-0.851021
-1.01282
-0.912919
-0.605918
-0.30109
0.0648847
0.222009
0.0512768
-1.8003
-2.94671
-2.00961
-1.03544
-0.673886
-0.364819
-0.15751
0.0598573
0.23543
0.319336
0.405959
0.512245
0.557085
0.403522
0.0998265
-0.217116
-0.48781
-0.711291
-0.888536
-0.885815
-0.58491
-0.173029
0.0889722
0.347841
0.367474
-1.15343
-2.38878
-1.80106
-1.18323
-0.781447
-0.405565
-0.209968
-0.00766528
0.182621
0.305095
0.409201
0.517703
0.568682
0.472442
0.217365
-0.108809
-0.396062
-0.591294
-0.769598
-0.832368
-0.473849
0.0496008
0.161344
0.472263
0.515271
-0.534295
-1.5109
-1.24304
-0.797056
-0.573988
-0.386272
-0.22532
-0.0625101
0.0522353
0.209199
0.380582
0.52216
0.586244
0.538377
0.345886
0.0543131
-0.223953
-0.429642
-0.625084
-0.698904
-0.341665
0.0737913
0.156896
0.215203
0.218148
0.0911256
0.128662
0.297403
0.414092
0.453917
0.392669
0.279438
0.332225
0.448524
0.176772
-0.0621325
-0.138771
-0.150052
-0.0254427
0.0237938
-0.0855576
-0.24095
-0.206053
-0.0889192
-0.139394
-0.312481
-0.445313
-0.153102
0.209215
0.196913
0.0312147
0.101404
0.321625
0.468052
0.46226
0.307322
0.165391
0.267371
0.381057
0.150354
-0.140103
-0.269505
-0.267158
-0.06882
-0.0322041
-0.116671
-0.24577
-0.26691
-0.205138
-0.2886
-0.452259
-0.373119
-0.0728588
0.205977
0.191507
-0.036075
0.106049
0.437365
0.564824
0.396896
0.24216
0.17079
0.220845
0.367993
0.229788
-0.0700074
-0.263155
-0.288855
-0.0822615
-0.128451
-0.289109
-0.373451
-0.360536
-0.315697
-0.344443
-0.446741
-0.254496
-0.120515
0.203568
0.204177
-0.0840876
0.157171
0.534768
0.531627
0.149825
0.0796102
0.130685
0.149015
0.287447
0.21754
0.00926346
-0.124965
-0.256444
-0.230264
-0.237911
-0.358667
-0.495922
-0.483971
-0.443946
-0.422671
-0.479235
-0.238997
-0.0187217
0.199083
0.204077
-0.118673
0.221446
0.580533
0.435346
0.0228456
0.0846161
0.216368
0.152676
0.254924
0.304808
0.126346
0.0392012
-0.152886
-0.332466
-0.276445
-0.361109
-0.577554
-0.627878
-0.626825
-0.600926
-0.58739
-0.327047
0.046759
0.190806
0.172355
-0.114995
0.281928
0.587625
0.350045
0.0495427
0.195877
0.313855
0.154248
0.17252
0.330071
0.198171
0.157238
-0.0213558
-0.348211
-0.31508
-0.422282
-0.639251
-0.756734
-0.817464
-0.81671
-0.755466
-0.435149
0.0313453
0.181015
0.123297
-0.0437559
0.311103
0.529456
0.270983
0.0643527
0.228116
0.324836
0.181307
0.138843
0.290642
0.22933
0.237483
0.044383
-0.358262
-0.398326
-0.521326
-0.704133
-0.817415
-0.943202
-0.951024
-0.858436
-0.53841
-0.0151352
0.173507
0.0949631
0.0472561
0.304846
0.451941
0.184366
0.0524275
0.20389
0.278853
0.206635
0.179512
0.246977
0.225591
0.299438
0.0430413
-0.440098
-0.485783
-0.608846
-0.769881
-0.824332
-0.953802
-0.927505
-0.778536
-0.554745
-0.0399393
0.169194
0.100099
0.0730888
0.293411
0.406477
0.128229
0.0512717
0.225934
0.289671
0.22454
0.222565
0.245478
0.251721
0.327618
0.0107767
-0.57128
-0.607727
-0.628702
-0.782206
-0.815499
-0.874191
-0.759549
-0.593973
-0.48427
-0.0488151
0.165517
0.0992229
0.0224444
0.292196
0.392388
0.105742
0.0375813
0.229802
0.319913
0.253749
0.228248
0.249311
0.312407
0.270034
-0.150151
-0.680308
-0.779723
-0.709741
-0.854415
-0.85187
-0.772099
-0.550168
-0.423501
-0.39525
-0.048162
0.162366
0.0911665
-0.0401712
0.305087
0.380535
0.0946568
0.0312283
0.180011
0.292812
0.281456
0.219687
0.205488
0.334158
0.194346
-0.24228
-0.796359
-1.03805
-0.940955
-1.01408
-0.969214
-0.721526
-0.379712
-0.302947
-0.336452
-0.0464077
0.160746
0.0836408
-0.100378
0.32011
0.390954
0.0504372
-0.0320139
0.105661
0.249549
0.267909
0.164051
0.10204
0.241557
0.231691
-0.0199254
-0.730278
-1.18998
-1.07751
-1.10253
-1.1169
-0.81587
-0.425583
-0.306841
-0.331149
-0.0629719
0.161889
0.0941286
-0.13036
0.307983
0.358979
-0.033833
-0.123663
0.0410612
0.20454
0.189496
0.07275
0.0200746
0.163982
0.257845
0.1825
-0.264617
-0.995852
-1.01967
-1.08409
-1.21195
-0.946335
-0.50351
-0.315534
-0.307388
0.00537838
0.165284
0.116085
-0.13429
0.281485
0.244639
-0.178513
-0.234455
-0.0253699
0.133624
0.0954517
0.0186226
0.0472061
0.191408
0.257776
0.104084
0.00159109
-0.566105
-0.864307
-0.950684
-1.16794
-0.978115
-0.524317
-0.350505
-0.310258
0.0318665
0.169967
0.140302
-0.156042
0.203889
0.0539971
-0.348426
-0.319959
-0.0864291
0.0756453
0.0613946
0.0132129
0.0753726
0.203895
0.282545
-0.015832
-0.0730464
-0.321472
-0.837904
-0.922771
-1.05934
-0.947925
-0.545473
-0.368408
-0.269638
0.0488514
0.176209
0.184315
-0.192256
0.0433805
-0.169317
-0.497213
-0.354356
-0.100965
0.0449005
0.04379
0.00664215
0.0543509
0.154763
0.280437
0.103898
-0.0526646
-0.337265
-0.900697
-1.01423
-1.0329
-0.938305
-0.601583
-0.365892
-0.265763
0.0555881
0.181232
0.230229
-0.231954
-0.111566
-0.354312
-0.650195
-0.397485
-0.078656
0.0294487
-0.00619609
-0.0163177
0.0584954
0.153192
0.285372
0.309714
-0.037672
-0.459678
-0.708588
-0.97065
-1.08169
-0.992761
-0.632254
-0.399248
-0.311305
0.0514217
0.181886
0.232347
-0.320299
-0.338188
-0.59093
-0.800006
-0.422705
-0.0118311
0.064374
-0.0537884
-0.06306
0.0402208
0.134939
0.235968
0.345603
-0.0306639
-0.418672
-0.563716
-0.834842
-1.09629
-1.03194
-0.636028
-0.467998
-0.408916
0.0424705
0.178289
0.206479
-0.597504
-1.00656
-1.1507
-0.860017
-0.280135
0.0755427
0.120362
-0.0204318
-0.0139815
0.0594017
0.138472
0.213811
0.306703
0.20491
-0.172834
-0.495283
-0.770508
-1.04054
-1.00588
-0.64801
-0.487437
-0.437709
0.0400183
0.174637
0.141915
-1.17873
-2.29714
-2.18325
-1.00396
-0.101891
0.0498307
0.0748353
0.0450856
0.114816
0.179041
0.256043
0.345729
0.405988
0.367971
0.0486234
-0.376135
-0.688827
-0.893545
-0.912867
-0.637079
-0.415971
-0.400373
0.0331536
0.189052
0.0510479
-1.81598
-3.67744
-3.33295
-1.45861
-0.303439
-0.107441
0.00908423
0.0701327
0.174484
0.287382
0.380091
0.463234
0.490067
0.366571
0.0796224
-0.261536
-0.5355
-0.737013
-0.822892
-0.593713
-0.291793
-0.303779
0.0585143
0.260214
0.058188
-1.94669
-4.03443
-3.71497
-1.94272
-0.755716
-0.262384
-0.0124956
0.0735539
0.159272
0.274812
0.396639
0.468431
0.469961
0.300233
0.0430579
-0.190576
-0.409178
-0.635044
-0.765152
-0.564279
-0.211446
-0.189655
0.112957
0.389866
0.328953
-1.30367
-3.17593
-3.1388
-2.06522
-1.06496
-0.329769
0.0441468
0.153339
0.162401
0.213188
0.329936
0.41005
0.422869
0.274017
0.0522191
-0.131172
-0.305142
-0.510263
-0.659861
-0.539382
-0.220791
-0.1533
0.117697
0.538692
0.715456
-0.336251
-1.85906
-2.21819
-1.77865
-1.0012
-0.26836
0.113204
0.24788
0.23142
0.290025
0.37039