/*--------------------------------*- C++ -*----------------------------------*\
  =========                 |
  \\      /  F ield         | OpenFOAM: The Open Source CFD Toolbox
   \\    /   O peration     | Website:  https://openfoam.org
    \\  /    A nd           | Version:  11
     \\/     M anipulation  |
\*---------------------------------------------------------------------------*/
FoamFile
{
    format      ascii;
    class       surfaceScalarField;
    location    "20";
    object      phi;
}
// * * * * * * * * * * * * * * * * * * * * * * * * * * * * * * * * * * * * * //

dimensions      [0 3 -1 0 0 0 0];

internalField   nonuniform List<scalar> 
49858
(
3065.96
48.1776
80.5549
3029.65
58.5295
-52.0892
2968.06
107.939
-71.1486
2836.06
187.447
-54.3047
2766.3
186.223
-62.3716
2751.46
133.141
-38.1843
2679.96
165.254
1.8095
2360.85
493.794
-93.5863
1806.94
886.459
-264.855
1199.63
922.893
-267.394
877.26
875.279
-519.71
935.304
1017.98
-1037.79
1526.44
420.356
-990.883
1605.68
907.479
-967.259
1632.86
1013.1
-988.424
1831.88
788.787
-933.541
2070.31
678.392
-864.427
1992.46
912.347
-772.001
1794.72
875.659
-625.924
1535.75
703.656
-387.461
1118.94
505.028
-35.3575
734.996
151.74
268.655
834.188
-666.576
567.518
1051.17
-951.303
727.769
-252.546
624.647
3150.17
10.0405
81.5833
3160.2
66.3851
-49.3341
3190.19
122.425
-72.4447
3232.03
159.447
-23.29
3240.72
216.271
-21.7029
3321.16
161.675
-64.7127
3468.53
174.383
-86.6415
3269.95
880.689
-113.909
2814.99
1454.62
-40.1757
2517.61
1303.6
-22.2441
2488.09
1121.43
-156.667
2383.03
927.054
243.489
2459.48
-113.191
475.682
2379.2
817.075
170.854
2161.39
1446.57
-215.41
2621.36
443.246
-98.4654
3040.96
216.861
80.9158
2919.68
1077.52
-0.884395
2351.14
1665.58
-163.274
1614.27
1414.91
89.8529
900.297
1082.24
226.45
707.29
-22.6328
399.353
823.489
-1261.9
486.793
652.908
-1607.34
832.104
-1067.73
628.02
3140.37
-13.5544
77.2377
3103.14
116.112
-43.5931
3118.61
147.9
-71.3063
3169.08
144.949
-50.0354
3072.78
418.686
-100.331
2992.75
370.958
-104.546
3240.25
-34.8043
-5.9865
3187.31
959.936
3.88774
2989
1668.84
12.1286
2916.94
1546.62
-136.981
2881.35
1250
-47.5952
2533.23
851.299
487.042
2107.31
-265.542
633.907
1697.81
554.652
708.929
1442.26
1618.96
130.344
1866.57
-340.966
385.08
2387.12
-948.12
664.873
2494.2
211.419
783.59
2084.76
1442.13
664.323
1400.03
1511.32
645.498
892.186
1482.92
210.402
768.837
-345.459
488.998
765.644
-1693.71
452.248
794.921
-2227.8
603.213
-1354.1
353.62
3129.82
-24.7738
76.099
3095.51
152.222
-37.6261
3165.76
113.148
-70.1124
3198.72
157.308
-71.4741
3022.94
695.511
-113.982
3005.82
446.077
-65.6652
3402.77
-477.122
40.9876
3415.24
939.12
14.2088
3164.76
2040.33
-105.017
2989.42
2013.7
-259.067
2952.54
1583.89
-232.183
2925.83
1006.13
-23.154
2378.38
186.613
198.695
2089.88
402.237
532.166
2874.19
443.393
445.816
3187.91
-938.943
318.315
3041.47
-1235.5
487.568
2726.43
-374.092
980.537
2271.43
840.161
1153.64
1534.3
1504.12
871.363
1149.54
1848.8
221.282
722.88
-423.871
582.013
664.606
-1913.54
323.84
843.46
-2606.48
230.662
-1783.38
227.672
3118.02
-29.5105
80.1151
3107.46
171.565
-36.5955
3192.08
85.9839
-85.149
3223.74
193.081
-84.2805
3195.09
806.931
-87.9717
3329.51
364.139
-58.5273
3620.62
-750.88
-16.125
3688.58
958.612
-87.3047
3377
2669.22
-310.663
3138.91
2847.49
-575.544
3074.64
2211.95
-514.71
3130.66
1401.86
-366.264
2936.42
681.205
-203.983
2991.58
452.93
-5.68382
3549.38
-54.0714
7.08388
3643.84
-1010.37
13.163
3538.72
-1341.51
252.634
2909.25
-529.889
842.792
1722.66
807.279
1291.54
706.306
1649.25
952.447
631.323
1524.74
508.511
422.378
-684.302
510.919
520.642
-2036.15
45.7599
906.365
-2727.63
-253.976
-1955.79
-206.087
3117.73
-36.8434
85.3546
3118.95
175.178
-35.1853
3184.43
89.5697
-105.308
3239.82
202.421
-87.1189
3341.23
750.615
-55.8539
3410.18
332.815
-30.5762
3391.83
-813.319
77.6489
3577.3
745.39
19.8415
3424.46
3148.8
-332.151
3289.69
3718.26
-727.132
3277.29
2953.11
-694.955
3189.59
2138.57
-587.803
2920.98
1433.1
-397.908
2942.09
812.059
-252.18
3163.89
189.491
-362.773
3259.37
-904.344
-137.428
3353.67
-1580.06
257.628
2324.72
-283.575
928.967
658.371
1185.85
1442.67
-108.816
1556.93
1003.58
-14.3717
927.436
658.142
18.8676
-937.482
294.495
342.529
-1994.05
-325.481
949.778
-2533.44
-782.445
-1757.15
-804.189
3118.86
-53.2646
91.9147
3118.95
190.765
-34.6809
3176.2
129.712
-114.574
3241.28
207.195
-72.35
3408.28
634.223
-38.1043
3343.18
398.909
12.5228
3003.86
-592.193
126.262
3228.29
384.805
139.404
3245.13
3314.93
-180.942
3188.76
4362.16
-575.74
3156.44
3707.43
-691.722
2953.15
3026.57
-636.186
2600.85
2225.62
-363.436
2533.73
1291.57
-313.98
2741.69
527.591
-475.782
2819.07
-874.033
-42.6149
2728.23
-1958.92
557.236
1196.96
152.649
1185.34
-250.27
1478.88
1216.12
-671.606
1310.54
720.603
-504.415
356.525
408.465
-317.006
-1020.69
-111.087
184.722
-1748.73
-769.151
960.828
-2098.97
-1226.37
-1331.8
-1282.63
3110.52
-65.5292
100.914
3113.51
194.667
-33.7827
3173.45
162.04
-117.541
3200.31
215.084
-56.7086
3378.66
471.319
-19.6288
3299.44
416.145
78.1098
2787.65
-207.183
156.636
2838.37
209.904
128.363
2892.15
3332.34
-71.7193
2929.53
4715.78
-385.119
2964.93
4275.39
-586.221
2810.55
3666.08
-467.416
2376.4
2836.33
-156.807
2200.78
1743.21
-230.399
2538.11
591.086
-335.918
2454.75
-862.762
126.927
1855.3
-1985.22
758.294
228.432
794.038
1094.01
-655.678
1686.58
776.919
-864.732
1178.3
410.312
-782.187
258.46
58.3406
-531.459
-638.717
-627.713
100.313
-1145.9
-1257.83
947.414
-1437.38
-1535.48
-838.887
-1569.15
3096.83
-79.1688
111.215
3109.27
211.165
-34.0465
3169.35
204.195
-111.346
3168.91
267.047
-50.2708
3315.43
351.747
-5.34969
3282.96
367.834
110.313
2797.12
167.98
135.183
2536.65
429.782
49.3794
2506.37
3436.64
-70.4158
2684.69
4853.96
-308.341
2858.87
4586.85
-471.52
2796.21
4003.21
-263.258
2397.73
3253.83
-2.41228
2245.03
2031.7
-107.68
2652.43
402.465
-183.916
2413.16
-938.155
366.46
1036.01
-1407.71
869.213
-252.015
1301.11
804.742
-739.402
1791.37
379.084
-905.91
1207.86
95.5918
-885.767
477.978
-305.651
-577.344
44.5872
-1068.17
107.698
-298.177
-1616.03
913.333
-626.137
-1668.73
-307.939
-1646.23
3087.52
-88.1176
123.18
3113.46
207.589
-36.4105
3165.47
228.865
-103.668
3195.16
250.719
-33.5468
3330.73
163.499
21.0071
3369.78
240.766
74.823
2998.22
532.18
16.8665
2346.36
1136.2
-51.836
2178.12
3764.7
-164.638
2463.81
4923.14
-350.7
2746.56
4736.55
-420.019
2762.51
4182.25
-189.526
2549.54
3446.36
11.5184
2534.34
2148.6
-107.923
2791.86
257.793
-107.793
2332.43
-1046.97
581.577
540.553
-480.281
860.844
-420.106
1763.32
487.192
-764.746
2142.71
-50.3069
-925.937
1637.32
-330.037
-892.462
1069.05
-696.828
-504.371
885.822
-1306.18
152.621
656.919
-1693.35
839.083
271.795
-1651.59
262.216
-1577.16
3073.22
-101.503
137.104
3111.23
215.499
-42.5459
3157.69
278.824
-95.1077
3215.7
169.357
11.9629
3386
-57.4864
58.9284
3467.84
133.473
49.4814
3073.7
991.314
-44.8025
2120.59
2231.05
-134.17
1892.78
4311.54
-313.792
2237.62
5048.87
-460.668
2598.71
4837.27
-448.913
2672.69
4321.21
-210.193
2562.19
3540.57
8.57773
2607.53
2226.48
-135.397
2576.6
372.083
-82.1006
1956.33
-973.486
565.656
340.695
380.618
743.377
-541.112
2401.47
188.218
-860.137
2868.66
-500.139
-1018.41
2480.07
-804.889
-970.701
1967.23
-1071.71
-566.757
1846.6
-1478.06
72.9117
1628.17
-1708.32
681.576
1182.86
-1579.16
836.187
-1468.75
3064.24
-113.733
153.224
3114.18
210.154
-51.1281
3174.68
283.525
-82.1611
3260.77
-22.9296
83.7201
3453.39
-396.207
105.011
3434.03
-4.83185
95.5367
2837.09
1527.3
37.8733
1782.16
3446.1
-172.492
1611.61
4932.19
-462.605
1994.52
5243.55
-578.39
2404.22
4946.69
-505.817
2513.94
4472.33
-249.056
2394.13
3652.33
8.17523
2335.63
2356.73
-75.8352
2134.61
692.814
-132.749
1563.81
-744.543
301.775
247.877
1035.38
604.435
-674.462
3255.09
-29.9533
-1022.36
3895.55
-813.932
-1160.87
3653.92
-1190.4
-1111.56
3127.15
-1358.19
-719.223
2912.47
-1587.68
-133.886
2634.02
-1700.01
387.911
2110.47
-1542.97
1454.3
-1438.45
3047.16
-133.244
169.647
3109.52
232.664
-59.1878
3213.9
259.214
-69.2865
3277.77
-253.723
166.529
3408.77
-694.375
168.228
3243.94
-35.4195
230.505
2421.91
2141.12
226.778
1382.31
4640.97
-140.122
1321.99
5545.21
-540.348
1731.41
5491.08
-637.158
2155.01
5075.5
-529.406
2300.48
4614.8
-274.798
2179.49
3785.23
-10.5574
1800.93
2684.91
43.9605
1592.41
1073.83
-172.303
1431.9
-597.904
15.2677
193.83
1696.55
536.1
-846.362
4275.57
-60.0488
-1262.63
5078.53
-879.64
-1350.28
4983.18
-1369.03
-1262.78
4411.27
-1501.19
-897.461
3991.7
-1555.03
-411.48
3664.46
-1614.71
3.39002
3105.92
-1479.92
1924.01
-1228.04
3034.67
-143.29
184.86
3104.72
241.727
-62.8094
3244.85
156.97
-28.6512
3203.54
-457.591
252.387
3172.5
-968.82
296.636
2860.58
-225.754
456.056
1846.34
2652.75
485.423
911.963
5594.77
-31.8953
997.107
5961.11
-517.549
1442.66
5660.18
-622.782
1863.65
5179.75
-518.135
2084.26
4697.78
-295.36
2015.16
3919.43
-57.8768
1530.96
3112.69
69.337
1297.33
1529.9
-205.327
1256.94
-436.236
-142.442
126.161
2234.93
551.812
-1008.48
5208.03
116.93
-1529.06
6134.34
-651.293
-1610.56
6180.49
-1245.08
-1494.36
5606.49
-1429.98
-1160.78
4940.97
-1384.5
-738.163
4521.41
-1371.93
-565.791
3951.8
-1139.86
1830.49
-708.993
3017.82
-155.922
197.055
3081.43
288.281
-59.1262
3200.41
59.1424
29.4048
2973.59
-554.622
360.534
2717.17
-1113.27
463.756
2256.6
-424.069
739.349
1144.62
3021
785.375
434.981
6174.51
155.838
645.362
6188.82
-416.752
1144.41
5753.92
-567.646
1572.12
5276.98
-499.623
1885.96
4720.25
-319.909
1937.96
4026.88
-149.19
1694.56
3412.95
-44.7286
1513.84
1995.88
-265.178
1144.35
75.2909
-126.426
59.4072
2652.5
645.532
-1115.42
5885.8
448.853
-1741.56
6825.92
-130.811
-1883.58
6972.41
-722.176
-1809.73
6489.28
-1020.31
-1530.61
5603.15
-999.095
-1153.51
5018.08
-943.679
-1266.79
4629.11
-652.094
1605.58
-194.155
3009.14
-159.77
208.787
3066.13
333.173
-44.8544
3101.87
9.64833
69.8352
2681.45
-511.141
461.199
2179.21
-1184.38
655.404
1514.33
-755.803
1058.8
406.866
3044.91
1109.26
-53.1304
6225.14
415.364
248.806
6136.77
-253.68
825.9
5672.73
-504.969
1294.78
5288.25
-485.238
1675.28
4670.7
-340.597
1839.43
4097.16
-247.47
1851.23
3584.11
-180.842
1742.63
2400.22
-278.118
1145.43
671.194
15.2842
55.2619
2927.45
809.042
-1103.01
6166.29
851.462
-1815.37
6978.27
517.885
-2066.86
7142.87
32.5426
-2063.92
6785.92
-341.317
-1846.83
5830.37
-471.256
-1455.65
5094.93
-502.421
-1622.75
4988.38
-252.103
1277.41
61.6072
2989.78
-163.834
222.839
3045.54
392.422
-26.8334
2971.62
136.213
59.3253
2405.89
-365.299
531.261
1690.49
-1102.29
831.633
790.55
-1101.97
1439.95
-301.278
2682.43
1524.94
-529.958
5734.97
763.457
-153.777
5814.93
-20.8464
511.495
5467.01
-427.454
1052.36
5234.4
-459.834
1455.97
4617.65
-339.405
1711.2
4150.99
-309
1902.81
3672.22
-272.675
1871.49
2704
-254.803
1192.04
1185.44
193.991
142.191
2972.95
1006.55
-926.082
5997.77
1235.09
-1681.51
6631.85
1092.89
-2074.06
6791.3
734.843
-2135.43
6490.16
356.851
-1927.79
5511.14
113.879
-1476.15
4687.54
-63.6992
-1447.86
4930.58
-1.42999
1149.42
177.286
2971.33
-152.097
235.577
3016.72
418.916
20.321
2899.99
443.436
-68.2614
2256.94
-101.677
541
1274.94
-839.324
993.62
88.5061
-1339.89
1676.71
-908.822
1838.32
1938.59
-966.241
4673.45
1177.75
-517.998
5148.69
263.81
223.587
5055.24
-307.032
853.941
4996.26
-393.654
1254.95
4488.9
-296.136
1588.36
4104.06
-317.399
1885.93
3668.03
-311.833
1954.84
2841.89
-201.455
1320.88
1499.96
347.885
335.287
2812.78
1166.81
-596.174
5450.38
1496.34
-1368.63
5938.68
1476.51
-1913.52
6080.63
1263.97
-2044.35
5651.28
980.081
-1804.73
4520.19
772.67
-1224.66
3629.25
527.303
-1241.18
4652.12
366.124
2036.45
642.964
2942.8
-123.323
241.936
3026.98
315.481
105.777
3059.89
693.86
-162.545
2422.29
390.026
337.057
1013.21
-523.931
1365.8
-455.268
-1132.66
1583.49
-1321.95
694.214
2147.24
-1294.17
3201.51
1539.41
-787.619
4160.23
557.345
-1.89806
4461.94
-135.379
697.222
4612.32
-268.793
1088.15
4312.36
-198.689
1487.15
3961.23
-259.827
1859.08
3590.34
-288.128
2026.98
2838.05
-141.865
1527.04
1626.23
406.675
596.261
2557.1
1206.61
-160.183
4655.62
1571.55
-900.949
5031.27
1664.39
-1570.25
5118.55
1642.66
-1802.34
4374.27
1525.37
-1548
2995.94
1298.44
-726.87
1967.18
862.632
-123.939
3101.74
917.171
3838.37
1701.35
2930.99
-82.0048
242.069
2989.31
146.95
182.74
3232.25
526.321
30.9898
2930.33
820.354
57.7244
1383.91
-234.744
1547.82
-471.517
-822.711
1936.68
-1473.88
-261.871
2214.39
-1468.53
1597.16
1768.56
-932.997
2920.42
827.194
-144.869
3686.67
79.6206
571.246
4025.26
-80.8181
968.884
3972.84
-46.2306
1407.88
3666.54
-148.455
1842.76
3393.06
-231.565
2105.91
2714.72
-128.227
1834.97
1605.78
321.751
1051.91
2242.64
1118.01
488.715
3743.43
1496.12
-111.203
3968.27
1676.76
-858.367
4017.85
1854.49
-1366.68
3045.05
1840.86
-1307.64
1517.68
1419.38
-218.372
247.096
621.043
1884.92
-45.5267
1058.9
7356.43
5161.47
2960.45
-71.6624
240.95
2862.23
99.1286
205.68
3053.14
38.5314
378.694
3145.7
251.3
613.236
2449.71
405.594
317.553
458.733
229.314
1351.26
-1188.99
23.873
1678.64
-1413.27
284.207
1758.81
-916.884
1479.5
1096.72
-197.874
2724.5
360.838
480.908
3298.61
149.927
893.577
3496.72
119.484
1343.02
3262.6
-14.6832
1844.66
3093.07
-170.993
2219.13
2543.53
-163.987
2192.16
1540.97
125.005
1751.96
1857.7
838.997
1356.15
2834.61
1313.83
757.83
3003.17
1562.9
-187.262
3029.61
1922.73
-1039.37
1761.54
2110.74
-1205.97
-260.058
1904.09
-410.111
-1841.74
1233.81
1703.02
-3554.68
1258.2
9826.19
14333.9
3020.92
-110.627
226.913
2827.57
64.0502
293.919
2752.54
-49.3567
285.743
2394.52
-240.564
1060.54
2066.42
-60.424
1112.13
1571.82
919.821
380.68
18.333
1315.14
817.242
-979.377
407.715
1314.31
-699.357
144.817
1348.91
-156.213
1642.94
732.718
412.088
2465.37
415.672
833.876
2868.56
299.207
1289.04
2734.58
142.529
1851.19
2669.71
-83.3401
2382.52
2268.63
-225.903
2601.37
1457.43
-121.003
2550.99
1483.08
423.187
2400.2
1984.94
992.246
1866.68
2114.12
1403.65
1261.5
1847.96
1752.13
615.876
349.482
1995.51
-32.9528
-1517.22
1820.48
-389.312
-2672.77
1060.5
58.721
-3841.92
-242.384
-3514.1
17275.6
3075.07
-167.814
198.09
2831.1
57.7417
380.772
2639.03
-59.6005
393.533
1984.67
-425.303
1059.81
1309.35
-464.19
1418.63
1243.3
349.521
1037.46
1177.97
1210.56
608.768
152.816
902.907
988.832
-346.353
-260.298
1416.04
-75.3332
552.936
1149.81
314.77
1544.4
804.182
740.076
2088.74
542.151
1193.68
2027.23
373.375
1786.98
2072.46
101.248
2495.35
1830.96
-213.305
3104.85
1236.64
-358.785
3575.56
1074.64
-67.643
3813.97
1257.96
470.877
3659.32
1245.06
991.296
3502.68
569.932
1388.02
3176.23
-891.622
1510.48
2083.21
-2081.28
1573.08
663.591
-2451.93
1090.48
-389.708
-2197.89
-719.057
880.709
-8424.06
3155.37
-259.455
161.727
2919.62
27.6996
418.568
2710.17
-132.123
503.527
2144.31
-702.85
1183.88
1606.77
-170.536
1533.12
1482.6
170.175
696.268
2013.56
611.192
402.222
1828.92
814.69
674.467
848.403
220.532
1060.05
37.4012
418.769
1448.17
143.922
674.015
1234.22
637.338
1166.82
762.364
1064.98
1261.9
577.005
1628.63
1314.48
361.487
2398.56
1218.82
-56.9395
3312.35
840.986
-478.786
4358.63
562.97
-537.727
5290.57
533.129
-232.482
6048.92
293.442
151.53
6502.33
-349.159
414.823
6115.8
-1094.35
530.253
4685.65
-1434.36
703.135
2630
-1268.85
753.98
1387.79
-807.807
-229.775
945.852
-3704.71
2837.8
120.355
2338.93
585.117
1525.15
779.324
-116.816
1291.99
1589.81
-1368.97
1446.29
415.258
2266.23
-134.358
2608.41
552.479
1666.92
1276.44
706.854
1536.17
-35.1721
1570.87
89.579
1161.96
512.085
926.928
1176.19
711.168
2051.54
379.139
3159.07
-254.84
4389.33
-669.967
5645.29
-733.549
6550
-627.142
6588.9
-407.561
5658.5
-188.069
4213.69
-20.3083
2810.8
106.483
2236.09
-242.113
-1883.27
3233.19
45.8624
-2.20402
3169.74
71.0701
-79.3894
3121.49
107.29
-143.407
2989.5
220.771
-132.635
2862.37
221.315
-111.466
2801.64
200.712
-110.374
2792.15
251.042
-161.552
2773.75
234.978
-238.578
2648.22
134.055
-218.175
2383.35
66.4217
-34.1262
1899.76
-122.424
106.482
1827.83
-906.51
-56.7073
2210.76
-1219.38
-155.424
2478.91
-952.053
-275.593
2655.98
-491.847
-648.608
3143.09
-602.983
-789.325
3706.97
-641.381
-760.088
3857.26
-266.075
-643.158
3409
416.111
-594.654
2731.48
1138.34
-854.636
2205.45
1362.41
-881.978
1998.69
485.578
-29.2817
1952.14
-362.237
951.688
1360.17
94.6868
1206.34
842.89
314.144
3330.93
0.27566
-7.45867
3324.4
83.5708
-76.9431
3422.4
68.7688
-149.027
3510.52
222.557
-114.307
3485.28
333.034
-87.9984
3478.63
305.449
-123.288
3543.81
355.598
-203.986
3586.94
438.147
-301.018
3494.94
528.637
-289.235
3348.12
619.829
-392.771
3338.2
397.618
-645.279
3583.14
-550.926
-349.079
3602.72
-939.689
169.313
3459.99
-844.845
196.186
3597.36
-957.349
111.613
4141.98
-1686.06
445.999
4588.75
-1710.32
708.129
4771.89
-1157.33
711.618
4750.23
-262.444
539.46
4311.04
1262.84
406.41
3257.01
2096
549.185
2382.26
923.474
834.178
1805.8
-594.081
1285.06
1267.4
-308.153
1766.97
1100.4
457.734
3294.34
-9.20185
-12.2803
3276.64
113.573
-74.9416
3320.42
83.8221
-150.418
3342.98
246.11
-102.445
3318.38
359.986
-90.8474
3350
290.428
-95.5847
3462.7
368.765
-98.0308
3518.82
553.362
-133.024
3480.21
770.322
-162.671
3510.32
870.331
-398.069
3760.92
658.962
-539.843
3902.48
28.8101
-220.635
3735.03
-297.152
165.072
3754.91
-618.201
464.324
3968.6
-1351.39
312.735
4346.42
-2082.52
400.9
4586.83
-1964.62
674.195
4569.64
-1146.25
787.113
4332.94
-325.968
958.682
3826.87
1205.14
1207.51
2770.83
2193.15
1177.26
2037.45
1002.27
1150.68
1362.14
-668.512
1205.33
968.175
-809.769
1501.6
593.21
651.921
3288.21
-7.63047
-16.7349
3290.21
124.502
-72.8424
3323.63
114.534
-154.402
3313.22
277.351
-102.589
3335.41
329.397
-106.367
3391.45
262.271
-85.2328
3512.77
308.679
-3.59074
3547.56
533.697
22.3787
3470.1
829.868
-60.2004
3431.4
901.024
-220.744
3502.07
757.46
-366.347
3532.13
499.217
-485.207
3470.68
409.842
-415.336
3744.43
-169.259
-170.167
4331.23
-1219.38
-264.358
4753.84
-2075.2
-112.386
4819.12
-1717.9
181.598
4509.96
-562.05
719.298
3663.46
261.612
1435.05
2666.89
1552.48
1541.61
1801.05
1916.63
1388.74
1458.11
684.917
1261.35
1020.44
-829.911
937.976
706.362
-1197.68
949.194
-129.918
669.128
3300
-10.0354
-21.426
3299.96
140.718
-68.6526
3329.65
144.282
-161.841
3316.16
297.419
-99.9328
3321.85
353.918
-114.619
3344.06
302.284
-109.543
3467.81
219.249
-34.4905
3557.04
441.288
-67.6088
3507.15
761.272
-175.139
3359.75
778.21
-283.502
3272.47
753.697
-392.934
3241.66
693.369
-491.124
3312.52
729.465
-553.32
3681.65
174.783
-690.182
4237.18
-1139.04
-614.838
4538.93
-2224.9
-131.471
4446.71
-1625.46
265.93
3578.21
-50.2651
1223.35
2186.14
956.117
2004.9
1237.69
1710.35
1754.12
938.712
1180.48
1555.51
954.256
-18.5531
1208.32
774.604
-1147.72
551.35
605.775
-1506.13
228.552
-688.779
86.5747
3312.97
-14.6062
-25.0874
3305.7
156.298
-61.3179
3319.31
172.054
-162.629
3322.64
308.288
-105.892
3362.63
410.472
-143.835
3447.1
351.96
-146.852
3621.24
201.624
-60.5037
3728.58
508.87
-140.923
3670.46
817.882
-316.687
3425.4
737.122
-419.257
3223.51
743.973
-448.982
3073.72
749.139
-451.831
3220.22
706.888
-471.437
3629.12
247.19
-684.548
3913.82
-1179.38
-571.186
3866.02
-2451.51
165.567
3441.03
-1651.15
761.673
2098.04
443.442
1830.86
800.157
1555.27
2198.76
345.127
1459.72
1756.59
448.197
269.778
1485.29
606.46
-715.953
842.713
657.128
-1486.44
-35.5084
722.555
-1774.11
-577.781
-1007.43
-720.617
3323.51
-24.4461
-24.6302
3317.9
176.128
-57.2186
3310.9
206.339
-149.325
3324.15
344.481
-117.847
3417.09
481.923
-187.704
3588.89
400.417
-183.629
3794.83
265.761
-119.868
3902.73
714.893
-154.922
3841.84
1047.58
-332.571
3571.23
917.835
-463.679
3277.2
839.265
-460.999
3020.12
792.06
-384.547
3086.7
661.784
-340.667
3407.85
301.24
-649.414
3441.18
-1164.86
-491.723
3065.88
-2529.29
439.83
2243.14
-1259.64
1037.56
940.51
1108.37
1866.03
155.128
1783.03
1800.19
7.55837
917.637
1406.95
225.451
-549.31
995.579
422.107
-1191.65
151.303
608.558
-1649.92
-808.808
817.991
-1875.17
-1346.7
-1176.06
-1410.31
3328.37
-33.8924
-18.3226
3328.34
193.093
-59.0472
3320.15
226.14
-139.907
3360.42
390.434
-143.198
3517.73
511.877
-191.971
3744.42
411.779
-132.223
3908.48
406.18
-122.305
3950.16
982.487
-163.596
3880.42
1368.98
-312.969
3657.22
1258.93
-490.88
3333.77
1068.44
-474.466
3037.97
936.24
-302.281
2903.33
852.732
-199.406
3087.6
451.498
-540.653
2926.34
-977.895
-331.86
2209.31
-2246.54
603.969
1113.76
-516.881
1153.48
383.541
1616.57
1339.89
55.7724
1855.14
1051.94
-17.3601
629.779
790.975
126.585
-942.973
310.726
333.204
-1322.04
-717.668
581.863
-1552.1
-1629.18
831.561
-1743.72
-1936.44
-1279.08
-1851.34
3325.73
-42.821
-6.49368
3337.5
213.854
-66.4019
3342.26
258.57
-147.316
3431.03
435.025
-173.616
3664.7
437.743
-143.7
3944.44
298.364
-29.1931
4041.46
537.314
-65.2268
3954.08
1280.91
-143.464
3834.47
1734.66
-305.022
3670.1
1651.02
-523.829
3369.65
1402.53
-492.907
3028.04
1253.17
-233.511
2750.16
1221.07
-92.2925
2761.71
728.607
-387.743
2509.33
-688.598
-205.774
1554.8
-1606.72
700.338
478.939
318.909
1109.35
168.827
1997.53
723.925
73.889
2054.32
255.123
-7.74853
708.089
58.1003
18.5647
-870.424
-448.723
240.132
-1177.85
-1477.25
533.857
-1296.22
-2205.7
795.597
-1412.42
-2285.88
-1307.29
-2060.04
3316.64
-42.1613
8.08891
3349.05
217.457
-74.0671
3372.61
287.794
-164.2
3532.89
410.412
-178.437
3852.32
227.047
-85.7846
4188.97
-21.8268
69.9466
4213.87
552.587
-7.18597
3998.2
1589.1
-135.444
3793.21
2131.68
-355.065
3642.68
2040.35
-590.877
3370.86
1785.56
-532.928
2985.03
1661.56
-223.486
2693.05
1568.86
-62.2146
2515.42
1055.87
-276.482
2186.94
-314.144
-174.243
1080.96
-733.817
798.623
226.071
978.196
1029.67
57.6721
2307.35
299.635
116.058
2366.47
-481.322
-14.9288
1242.66
-795.558
-118.53
-327.34
-1187.51
104.187
-769.481
-1991.77
446.498
-884.943
-2502.85
723.742
-964.164
-2416.68
-1167.81
-2155.33
3317.09
-44.6189
22.2472
3358.29
220.089
-76.7071
3388.31
344.691
-181.874
3647.66
336.382
-170.672
4109.15
-118.095
-50.2006
4480.21
-464.524
139.29
4428.44
542.807
35.3068
4102.53
1973.8
-181.435
3797
2625.39
-498.653
3615.22
2493.19
-728.539
3344.55
2226.12
-616.97
2942.24
2108.16
-263.626
2676.9
1900.2
-77.3664
2448.14
1362.55
-240.212
2073.64
159.37
-211.34
970.847
97.1546
812.559
116.723
1558.43
969.504
-38.4826
2572.64
15.0691
12.1031
2751.89
-1015.3
-139.181
2037.65
-1543.13
-283.132
517.771
-1871.77
-61.488
-171.559
-2382.75
291.004
-331.283
-2678.08
574.357
-412.698
-2443.06
-835.365
-2197.51
3332.31
-55.1672
35.9898
3361.52
218.016
-74.5428
3410.64
394.639
-187.754
3787.74
179.716
-149.267
4388.93
-595.826
-29.7221
4776.11
-925.734
161.835
4661.06
638.227
59.9999
4221.61
2510.03
-265.404
3819.11
3255.54
-691.243
3592.33
3046.04
-905.103
3306.75
2730.2
-723.515
2909.36
2569.53
-317.747
2658.91
2253.25
-108.78
2542.15
1611.95
-232.68
2139.98
656.94
-270.205
959.017
825.406
707.352
-11.2309
2133.93
936.944
-318.653
2834.44
-67.3203
-421.711
3084.38
-1149.9
-513.773
2704.48
-1881.21
-584.125
1417.81
-2299.75
-315.694
550.45
-2677.35
24.346
331.567
-2790.9
252.882
163.402
-2436.35
-303.287
-2239.23
3350.48
-82.9613
47.8921
3353.09
245.304
-70.0502
3463.98
410.632
-190.275
3965.22
-53.4108
-103.372
4620.61
-1090.31
9.14379
5006.14
-1278.13
213.727
4852.16
894.052
141.768
4303.66
3223.24
-292.045
3823.66
4022.81
-819.766
3559.27
3702.07
-1020.35
3256.08
3292.09
-777.155
2871.17
3023.37
-340.098
2633.57
2614.19
-144.3
2627.23
1882
-242.228
2251.49
1114.19
-284.151
974.63
1438.84
644.798
-165.845
2744.51
1011.03
-775.386
3138.7
165.761
-1074.05
3303.35
-893.347
-1114.63
3082.55
-1805.41
-1073.31
2122.66
-2344.45
-752.469
1266.14
-2678.81
-423.398
1061.96
-2759.96
-324.792
910.185
-2373.45
261.43
-1960.63
3357.43
-112.383
63.9096
3342.33
277.715
-69.3107
3554.56
361.716
-183.804
4119.02
-310.714
-48.3416
4700.07
-1476.24
108.697
5067.65
-1549.58
361.856
4914.41
1212.99
326.697
4296.16
4041.99
-225.645
3763.52
4881.8
-841.489
3480.03
4400.82
-1035.17
3174.91
3838.47
-754.929
2806.56
3433.79
-337.303
2577.6
2970.2
-190.744
2579.85
2218.37
-281.349
2233.54
1526.95
-296.198
962.086
1893.4
640.083
-307.017
3352.11
1162.28
-1205.42
3494.72
588.736
-1711.25
3415.44
-348.148
-1813.71
3262.82
-1419.3
-1712.45
2573.97
-2068.91
-1371.92
1847.93
-2382.45
-976.2
1700.97
-2478.34
-960.71
1713.81
-2114.9
655.547
-1480.84
3335.09
-130.249
82.1725
3330.36
329.203
-71.4365
3637.63
278.95
-165.13
4148.18
-501.235
70.3734
4521.19
-1692.79
335.933
4870.98
-1797.96
682.961
4762.19
1465.42
667.408
4139.16
4881.86
-42.6081
3588.83
5796.19
-768.931
3317.41
5103.6
-989.731
3034.04
4339.83
-708.187
2697.87
3790.19
-335.278
2485.61
3287.27
-257.105
2453.2
2544.63
-351.403
2150.91
1887.18
-340.228
932.793
2298.66
663.858
-415.084
3966.74
1343.59
-1480.62
3972.66
984.326
-2154.96
3601.82
291.716
-2411.87
3431.82
-701.301
-2363.05
2926.7
-1478.41
-2032.58
2314.46
-1844.15
-1560.41
2234.44
-2032.89
-1655.53
2933.11
-1838.99
1075.48
-1157.2
3318.43
-128.237
97.1914
3328.37
365.065
-64.269
3650.44
212.812
-143.962
3975.89
-550.46
231.398
4071.29
-1757.63
683.624
4360.49
-2162.9
1186.79
4292.61
1482.62
1188.36
3738.7
5551.23
312.165
3258.74
6612.25
-585.409
3047.53
5704.76
-896.26
2814.9
4725.81
-641.937
2538.56
4038.24
-323.865
2368.37
3501.78
-310.9
2347.77
2778.86
-412.5
2105.03
2182.03
-350.333
883.535
2746.98
772.767
-556.456
4612.49
1580.33
-1762.62
4630.46
1372.56
-2594.74
4059.55
858.498
-2906.99
3678.83
61.4093
-2853.22
3236.1
-737.181
-2517.3
2780.5
-1302.41
-1915.56
2842.27
-1734.06
-2162.69
4558.67
-1693.9
2127.99
-1095.42
3308.5
-119.87
110.34
3327.2
412.617
-41.9965
3563.82
241.204
-138.341
3560.15
-345.193
413.23
3254.02
-1730.93
1188.99
3416.05
-2639.95
1855.98
3405.98
1196.92
1869.01
3039.83
5818.23
888.204
2753.14
7126.56
-230.479
2667.24
6093.12
-718.143
2529.16
4952.49
-543.452
2340.31
4161.09
-277.98
2242.65
3595.51
-319.144
2289.77
2879.66
-436.83
2091.02
2420.91
-309.329
795.976
3246.51
980.32
-742.56
5237.83
1909.99
-2037.71
5317.43
1833.84
-2984.6
4670.96
1418.23
-3359.39
4106.12
671.988
-3236.38
3605.96
-142.294
-2722.25
3234.39
-858.879
-1856.84
3513.89
-1612.45
-1877.55
6370.14
-1812.77
4215.29
-990.292
3308.94
-102.406
119.44
3316.73
436.186
11.8919
3388.15
339.784
-182.976
2934.32
180.235
551.467
2040.73
-1674.64
1918.02
2005.87
-3393.45
2592.86
2114.98
538.272
2559.87
2077.34
5489.56
1580.71
2086.39
7118.25
284.995
2183.05
6126.19
-431.466
2188.8
4937.69
-388.958
2115.92
4095.91
-182.576
2115.64
3519.2
-277.318
2249.54
2828.46
-423.801
2076.92
2591.08
-216.346
743.134
3701.31
1225.33
-826.55
5727.58
2247.14
-2139.18
5858.16
2273.71
-3165.65
5272.68
1909.3
-3709.32
4645.02
1274.61
-3675.96
3919.63
636.668
-2960.45
3230.31
68.3113
-1596.7
3568.82
-884.166
-1058.93
7981.77
-1719.43
9382.27
-1132.54
3313.29
-97.6113
123.061
3285.85
479.89
109.102
3260.11
493.531
-238.434
2465.6
950.647
447.315
950.088
-1295.32
2601.08
527.984
-4092.73
2828.3
700.919
-248.917
2859.87
988.87
4637.61
2155.77
1321.41
6556.53
830.774
1624.6
5781.7
-61.0077
1809.79
4670.07
-167.715
1878.36
3859.56
-33.2594
1990.56
3317.84
-185.096
2200.62
2697.15
-375.826
2075.39
2677.42
-105.923
834.507
3988.82
1365.24
-647.813
5970.32
2451.48
-1916.2
6127.87
2581.24
-3013.15
5671.35
2370.9
-3777.2
5009.57
2047.13
-3884.76
3792.51
1762.85
-3071.07
2290.48
1423.42
-1390.82
2140.16
621.172
931.58
7023.55
-474.702
18077.5
-1257.43
3317.2
-90.3997
122.778
3327.42
440.984
203.219
3522.04
487.416
-147.586
2886.51
1440.7
247.638
852.608
-98.9235
2441.29
-581.051
-3766.72
3140.67
-645.317
-913.786
3042.79
-102.04
3348.34
2581.26
566.778
5444.41
1327.36
1068.98
5047.25
352.676
1419.7
4149.75
113.699
1635.09
3435.78
164.381
1873.79
2970.97
-49.7761
2159.44
2473.73
-296.463
2132.35
2618.61
-37.41
1130.86
4029.51
1292.67
-67.9942
5862.72
2433.87
-1149.35
6004.69
2711.31
-2155.31
5637.1
2724.4
-2884.44
4868.6
2725.4
-3037.81
3185.17
2593.64
-2397.71
856.448
2200.47
-861.993
-508.035
1712.6
3537.32
2359.26
1309.96
32796.8
-217.375
3347.71
-118.144
115.059
3347.47
342.742
276.79
3847.6
326.48
26.2988
4193.86
1526.45
202.581
2476.66
1262.3
762.443
-651.693
-1767.97
2601.36
-1623.98
-964.692
2828.57
-1108.84
1926.64
2743.36
-140.788
3924.26
1719.03
573.392
4000.57
762.274
1058.04
3450.02
428.384
1389.07
2874.76
390.068
1745.05
2497.98
130.095
2142.17
2124.64
-194.114
2299.59
2344.76
-29.9376
1643.41
3763.59
1060.06
783.537
5394.6
2172.46
-51.6808
5525.16
2632.57
-978.99
5272.01
2852.74
-1569.5
4386.39
2982.9
-1514.71
2383.02
2830.75
-828.629
-335.503
2374.55
153.427
-2260.61
1959.13
3905.94
-2643.27
2446.84
48654.8
7189.78
3404.7
-211.409
115.838
3406.3
262.672
382.695
3702.64
357.879
-41.8969
4082.67
1306.84
890.71
3366.32
1622.89
1459.98
717.335
-323.196
1609.26
-1461.39
-263.914
2350.88
-1649.47
888.247
2584.95
-640.865
2383.1
1939.19
204.962
2817.9
1131.39
759.637
2607.36
759.063
1120.31
2208.76
636.44
1553.06
1869.47
357.279
2114.15
1563.19
-57.6256
2559
1782.45
-88.1764
2399.64
3105.82
712.961
1910.73
4580.61
1732.77
1353.86
4747.53
2330.92
834.014
4458.17
2732.21
676.79
3454.8
2824.44
1092.72
1387.3
2540.81
1734.86
-1356.89
2163.01
1652.09
-2959.33
1800.79
-4.75581
-2883.31
1611.11
39362.8
17860.2
3420.12
-356.274
126.324
3486.5
236.349
321.154
3603.36
503.492
119.966
3821.91
877.396
1279.55
3503.62
1250.33
2179.39
2025.81
243.706
2028.28
-300.317
538.852
2226.31
-1519.22
766.671
2413.73
-937.199
1260.06
2062.14
-46.1794
1674.32
1532.88
528.622
1774.33
1215.98
835.827
1610.8
976.102
1263.22
1263.47
678.685
1978.75
881.072
173.646
2740.42
1001.39
-128.245
3210.56
2048.27
260.958
3449.97
3210.44
1069.15
3427.74
3521.91
1707.85
3365.12
3337.41
2149.44
3747.86
2195.56
2226.89
4472.88
222.273
1908.05
4783.11
-1797.76
1665.83
4194.86
-2801.72
1478.77
776.701
-1501.67
1289.07
14331.8
3121.8
3404.63
-451.582
52.6622
3718.43
246.949
139.718
4150.22
214.435
422.971
4591.64
120.877
1603.21
4363.49
1175.51
2014.09
2929.5
485.637
1999.1
558.058
1299.77
2117.27
-1058.59
968.502
2204.51
-1100.37
436.987
2071.37
-356.472
628.063
1933.67
224.338
914.971
1738.77
537.454
1025.8
1273.73
924.025
739.374
919.13
1641.32
297.114
402.007
2608.13
176.138
-93.0792
3537.85
852.737
-166.239
4465.94