/*--------------------------------*- C++ -*----------------------------------*\
  =========                 |
  \\      /  F ield         | OpenFOAM: The Open Source CFD Toolbox
   \\    /   O peration     | Website:  https://openfoam.org
    \\  /    A nd           | Version:  11
     \\/     M anipulation  |
\*---------------------------------------------------------------------------*/
FoamFile
{
    format      ascii;
    class       volVectorField;
    location    "20";
    object      U;
}
// * * * * * * * * * * * * * * * * * * * * * * * * * * * * * * * * * * * * * //

dimensions      [0 1 -1 0 0 0 0];

internalField   nonuniform List<vector> 
17196
(
(0.973878 0.00443269 0.0117574)
(0.954509 0.00779078 -0.000124388)
(0.921458 0.0150239 0.0122075)
(0.918499 0.0308382 0.0457795)
(0.90363 0.0272094 0.0818982)
(0.88836 0.0256058 0.12208)
(0.863887 0.0286379 0.141345)
(0.760375 0.036643 0.132334)
(0.594116 0.0432172 0.14454)
(0.4533 0.0206145 0.220515)
(0.331687 0.0511245 0.0990607)
(0.281093 0.250155 -0.146402)
(0.407138 0.348836 -0.198232)
(0.480614 0.387841 -0.185688)
(0.508385 0.380308 -0.178949)
(0.567547 0.294928 -0.176443)
(0.62808 0.177999 -0.161629)
(0.584963 0.172859 -0.109281)
(0.602833 0.210999 -0.0656753)
(0.54428 0.232081 0.0341259)
(0.423091 0.217983 0.156192)
(0.294281 0.183274 0.221693)
(0.232434 0.0153111 0.2404)
(0.25661 -0.0940633 0.219541)
(0.291296 -0.0785837 0.163595)
(0.986347 0.00402739 0.0130518)
(0.986613 0.0101949 0.00124901)
(0.97605 0.023855 0.0156389)
(1.00756 0.0390614 0.0618044)
(1.0423 0.0353447 0.114383)
(1.04679 0.0308852 0.138669)
(1.07384 0.0249717 0.128909)
(1.04062 0.0706814 0.152662)
(0.901458 0.129555 0.279849)
(0.804407 0.0966869 0.413592)
(0.790983 0.0492906 0.449337)
(0.789588 -0.0154751 0.459572)
(0.766001 -0.0577654 0.403461)
(0.778276 0.189568 0.238658)
(0.679853 0.296873 0.0577831)
(0.740833 0.331427 0.0257245)
(0.913754 0.312873 0.0575378)
(0.901472 0.295374 0.0414108)
(0.863628 0.257956 0.0032251)
(0.648343 0.229038 0.112285)
(0.385515 0.191135 0.178502)
(0.191875 0.0396638 0.266675)
(0.252535 -0.180414 0.19145)
(0.242798 -0.225687 0.136203)
(0.216189 -0.0821557 0.143267)
(0.986309 -0.000244928 0.0119659)
(0.975893 0.0138022 0.00213446)
(0.955565 0.0227479 0.0154864)
(0.979351 0.0168687 0.0611525)
(1.01362 0.0341525 0.10643)
(0.97905 0.033984 0.136258)
(0.990223 0.0383273 0.151054)
(0.967848 0.152865 0.195056)
(0.904464 0.222631 0.309985)
(0.900728 0.183478 0.398453)
(0.932661 0.130201 0.506181)
(0.870688 0.0402088 0.57421)
(0.731161 -0.231481 0.497247)
(0.682734 0.0458455 0.388797)
(0.387088 0.339543 0.193647)
(0.543475 -0.0599127 0.343144)
(0.6642 -0.109954 0.361491)
(0.732602 0.131742 0.345131)
(0.736127 0.281679 0.273091)
(0.603968 0.201104 0.265924)
(0.369374 0.197892 0.176832)
(0.155445 -0.0344547 0.247965)
(0.268778 -0.256152 0.133113)
(0.226446 -0.310768 0.0573713)
(0.257751 -0.17977 0.120356)
(0.98498 -0.00318783 0.011506)
(0.972496 0.0211479 0.00404244)
(0.955613 0.0174123 0.0157473)
(1.00326 0.0139933 0.0614085)
(0.997176 0.0863059 0.108123)
(0.937051 0.0979782 0.140527)
(1.06428 0.0381815 0.143792)
(1.05289 0.243206 0.161418)
(0.95585 0.354449 0.253435)
(0.927578 0.309666 0.326242)
(0.940836 0.248256 0.401176)
(0.930967 0.192202 0.506425)
(0.884795 0.0186888 0.507363)
(0.663233 -0.0574711 0.471078)
(0.708641 -0.0317672 0.51238)
(1.0643 -0.234381 0.422257)
(1.0135 -0.298728 0.371726)
(0.819932 -0.103193 0.46095)
(0.769175 0.136618 0.421532)
(0.700245 0.231351 0.340477)
(0.436369 0.267721 0.165299)
(0.131121 -0.128747 0.20358)
(0.258699 -0.328179 0.0603885)
(0.215637 -0.400917 -0.0512479)
(0.32346 -0.265187 0.0257071)
(0.981906 -0.00417256 0.0123673)
(0.970981 0.0255733 0.0048472)
(0.962095 0.0122947 0.0138939)
(1.01357 0.0280413 0.0621218)
(1.00252 0.131558 0.114162)
(1.01201 0.066196 0.140966)
(1.15915 -0.11202 0.100361)
(1.17518 0.177054 0.0562111)
(1.0279 0.415975 0.127485)
(0.964681 0.427435 0.181527)
(0.982561 0.344068 0.269593)
(0.985293 0.243277 0.316732)
(0.982471 0.122644 0.327418)
(0.843391 0.0436671 0.370598)
(1.04204 -0.0931636 0.380397)
(1.20459 -0.216176 0.244054)
(1.173 -0.232795 0.196265)
(0.991367 -0.112926 0.287767)
(0.70554 0.0895518 0.389869)
(0.453079 0.270326 0.359903)
(0.125778 0.222018 0.195289)
(0.0640934 -0.11712 0.136608)
(0.193017 -0.329011 -0.0246405)
(0.199988 -0.443011 -0.179627)
(0.381657 -0.307058 -0.129065)
(0.980421 -0.00520859 0.0134101)
(0.971421 0.0273675 0.00513629)
(0.965656 0.014948 0.0139033)
(1.0135 0.0384253 0.0634238)
(1.02873 0.12904 0.105308)
(1.04945 0.0309022 0.138142)
(1.10743 -0.177474 0.124848)
(1.15124 0.118772 0.0102108)
(1.01952 0.468115 0.0179173)
(0.996573 0.53313 0.0599059)
(1.0327 0.412596 0.147165)
(1.04919 0.251294 0.133533)
(0.977937 0.166117 0.165202)
(0.825703 0.142975 0.193631)
(0.961471 0.0210376 0.107485)
(1.08428 -0.147286 0.0148511)
(1.09314 -0.234823 0.050007)
(0.944902 -0.111868 0.186587)
(0.392859 0.0966836 0.507491)
(0.0731283 0.17398 0.427269)
(-0.0969779 0.145521 0.204213)
(-0.0324203 -0.122724 0.0746832)
(0.0903706 -0.295398 -0.105507)
(0.163503 -0.402471 -0.282574)
(0.451792 -0.293925 -0.281282)
(0.980362 -0.00706371 0.0146765)
(0.969897 0.0285333 0.00485162)
(0.964584 0.0182157 0.0154402)
(1.0221 0.0371689 0.0647391)
(1.04332 0.113771 0.0975148)
(1.04334 0.0420871 0.14964)
(1.01971 -0.157455 0.157761)
(1.03611 0.0570216 0.0154051)
(0.942953 0.494598 -0.0189026)
(0.965833 0.628717 0.0297025)
(1.00568 0.521245 0.0471561)
(0.987468 0.416714 0.0141464)
(0.87992 0.291239 0.0944876)
(0.733948 0.185791 0.0695532)
(0.786449 0.110336 -0.0945711)
(0.996876 -0.0984735 -0.119585)
(0.949059 -0.232048 0.0506761)
(0.655477 -0.0213947 0.33205)
(0.0128132 0.212022 0.537561)
(-0.194168 0.207634 0.363802)
(-0.215255 0.095765 0.143476)
(-0.124216 -0.125579 -0.00937567)
(0.00171406 -0.257134 -0.191117)
(0.12131 -0.340014 -0.363818)
(0.509285 -0.232514 -0.390658)
(0.979038 -0.00931928 0.0161172)
(0.965653 0.0302024 0.00539)
(0.964747 0.0221498 0.015084)
(1.03031 0.028812 0.0656756)
(1.02406 0.0850228 0.105501)
(1.01885 0.0638599 0.178638)
(1.00299 -0.07325 0.191887)
(0.916879 0.0140454 0.0365048)
(0.825232 0.497517 -0.00984764)
(0.877776 0.703073 0.0332491)
(0.944117 0.63096 -0.031668)
(0.933795 0.556155 -0.0354095)
(0.812508 0.427049 0.0661782)
(0.65771 0.278371 -0.00468069)
(0.690789 0.156877 -0.15626)
(0.961929 -0.095622 -0.151986)
(0.769837 -0.344466 0.0174746)
(0.277898 0.0950214 0.407151)
(-0.203041 0.292696 0.40187)
(-0.300042 0.220712 0.237759)
(-0.25167 0.0468677 0.057945)
(-0.178464 -0.128581 -0.108242)
(-0.058119 -0.223449 -0.287339)
(0.0952784 -0.272491 -0.426338)
(0.543399 -0.161057 -0.460327)
(0.976693 -0.0113438 0.0175914)
(0.961032 0.031418 0.00559076)
(0.96675 0.0288334 0.0136027)
(1.03216 0.0345556 0.0710007)
(0.999147 0.0571591 0.129035)
(0.99565 0.0736232 0.211805)
(1.04639 0.0205658 0.21036)
(0.83944 0.025631 0.0617651)
(0.703909 0.50757 0.00382537)
(0.784243 0.743171 0.0158437)
(0.89375 0.696926 -0.0724647)
(0.918991 0.613508 -0.0560674)
(0.8085 0.505257 0.0106962)
(0.658329 0.33344 -0.0598212)
(0.75681 0.104675 -0.146618)
(0.961419 -0.131452 -0.116086)
(0.641838 -0.287922 0.0968528)
(0.0200101 0.212643 0.322108)
(-0.268211 0.281915 0.184562)
(-0.31177 0.188867 0.0640896)
(-0.271948 0.0536497 -0.0411746)
(-0.192861 -0.0739516 -0.207847)
(-0.0687364 -0.146944 -0.375065)
(0.0929926 -0.170539 -0.455119)
(0.532295 -0.0946454 -0.487993)
(0.974135 -0.0131392 0.0192284)
(0.958646 0.0325216 0.0058018)
(0.972181 0.0326625 0.0113632)
(1.03081 0.0418247 0.0841252)
(0.997475 0.0390114 0.16185)
(1.0084 0.0545021 0.228837)
(1.15374 0.0708541 0.200499)
(0.795342 0.114951 0.0803724)
(0.608348 0.553475 1.27162e-05)
(0.708169 0.764642 -0.0230952)
(0.835962 0.731714 -0.089799)
(0.891016 0.635636 -0.0901859)
(0.826537 0.528077 -0.0644216)
(0.728681 0.319 -0.103262)
(0.864862 0.0244018 -0.121699)
(0.950639 -0.148148 -0.0658669)
(0.551033 -0.116535 0.16659)
(-0.113127 0.239725 0.190109)
(-0.280464 0.288575 -0.00379977)
(-0.308419 0.201021 -0.11064)
(-0.28332 0.109714 -0.15909)
(-0.193285 0.068868 -0.254177)
(-0.0448945 0.0273236 -0.380723)
(0.0976273 -0.0375553 -0.449498)
(0.486285 -0.0117826 -0.471908)
(0.970802 -0.014896 0.021129)
(0.955967 0.0330536 0.00509276)
(0.970249 0.0394106 0.0138997)
(1.03532 0.0386008 0.106395)
(0.99239 0.0164888 0.174849)
(1.04171 0.0265315 0.224311)
(1.23601 0.113219 0.184838)
(0.715955 0.262459 0.0785638)
(0.530128 0.633692 -0.0252224)
(0.639692 0.782118 -0.06493)
(0.761715 0.746814 -0.110109)
(0.84688 0.651831 -0.126583)
(0.824481 0.52728 -0.101845)
(0.746683 0.312769 -0.103619)
(0.869651 0.0176674 -0.102795)
(0.821897 -0.167218 -0.0483776)
(0.470214 0.0144788 0.182629)
(-0.171358 0.315977 0.121728)
(-0.296283 0.375029 -0.105052)
(-0.338631 0.30628 -0.230622)
(-0.312531 0.230761 -0.264824)
(-0.221724 0.214935 -0.303487)
(-0.0802117 0.175693 -0.384697)
(0.0705876 0.104104 -0.427765)
(0.425586 0.0802789 -0.442577)
(0.968065 -0.0168572 0.0233674)
(0.954981 0.0328554 0.00408913)
(0.969452 0.0449724 0.0223547)
(1.0527 0.0190573 0.127322)
(0.995735 -0.0270746 0.162517)
(1.07705 0.0117762 0.205362)
(1.20248 0.19856 0.175931)
(0.578147 0.445252 0.0569371)
(0.452517 0.727369 -0.0650358)
(0.565993 0.803366 -0.103473)
(0.678285 0.757568 -0.134483)
(0.784043 0.670559 -0.145616)
(0.783546 0.537499 -0.103494)
(0.70541 0.333739 -0.0707299)
(0.719973 0.0634958 -0.0907074)
(0.672084 -0.151839 -0.0735112)
(0.427091 0.119484 0.1877)
(-0.204522 0.443224 0.102828)
(-0.328287 0.534146 -0.132002)
(-0.393819 0.482147 -0.281071)
(-0.359869 0.400541 -0.32993)
(-0.270135 0.381139 -0.346534)
(-0.151356 0.335321 -0.401175)
(-0.000442496 0.256994 -0.424239)
(0.325771 0.175293 -0.426821)
(0.965381 -0.0193262 0.0257524)
(0.950535 0.034159 0.00225789)
(0.970895 0.0440706 0.035932)
(1.07356 -0.0217212 0.143722)
(0.980219 -0.0820959 0.136184)
(1.07129 0.00475877 0.195134)
(1.09555 0.288365 0.171811)
(0.409612 0.632995 0.0222267)
(0.371944 0.821065 -0.108227)
(0.483352 0.834596 -0.136985)
(0.591435 0.774656 -0.154964)
(0.699223 0.697388 -0.15146)
(0.71675 0.562697 -0.0893119)
(0.673654 0.384075 -0.0208399)
(0.386004 0.155337 -0.089416)
(0.641637 -0.0773194 -0.114449)
(0.416977 0.221876 0.197229)
(-0.232358 0.603658 0.116359)
(-0.382294 0.731357 -0.108485)
(-0.471994 0.70749 -0.268521)
(-0.421966 0.609107 -0.32595)
(-0.320002 0.554251 -0.347543)
(-0.226972 0.503247 -0.414634)
(-0.108115 0.412667 -0.429121)
(0.20754 0.270015 -0.373973)
(0.963873 -0.0215021 0.0278157)
(0.946462 0.036387 0.00130955)
(0.979947 0.0324476 0.0505361)
(1.07309 -0.0683708 0.146834)
(0.923919 -0.146618 0.129208)
(0.993966 -0.0204489 0.207155)
(0.931766 0.377555 0.169456)
(0.207387 0.809493 -0.0232244)
(0.275864 0.90167 -0.143129)
(0.390564 0.870178 -0.15965)
(0.501476 0.798557 -0.165747)
(0.604688 0.729363 -0.149503)
(0.657783 0.598383 -0.0728352)
(0.657065 0.449594 0.00173632)
(0.229309 0.203845 -0.102846)
(0.563943 -0.0863176 -0.131424)
(0.411408 0.313097 0.211606)
(-0.258648 0.760388 0.151545)
(-0.441123 0.898926 -0.0493091)
(-0.558715 0.902048 -0.20693)
(-0.514389 0.807238 -0.261932)
(-0.401458 0.711294 -0.290969)
(-0.314793 0.650603 -0.388037)
(-0.228969 0.571093 -0.396412)
(0.0152655 0.366922 -0.274617)
(0.963272 -0.0231861 0.029439)
(0.939525 0.041529 0.0010474)
(0.982448 0.0169542 0.0572194)
(1.03191 -0.0886772 0.15071)
(0.80517 -0.174727 0.138016)
(0.841241 -0.0531675 0.232575)
(0.700344 0.449708 0.165665)
(0.00907418 0.941269 -0.0610329)
(0.164494 0.95881 -0.162535)
(0.292223 0.898566 -0.163367)
(0.413872 0.823413 -0.16062)
(0.520773 0.749594 -0.13856)
(0.612085 0.632021 -0.0713119)
(0.658941 0.515465 -0.0198125)
(0.354352 0.263135 -0.117569)
(0.521956 -0.0522752 -0.104437)
(0.387274 0.381704 0.231236)
(-0.269362 0.878488 0.197617)
(-0.488188 1.03196 0.0446528)
(-0.629295 1.03956 -0.0872657)
(-0.621264 0.944949 -0.148114)
(-0.520107 0.819017 -0.197611)
(-0.425138 0.747479 -0.301753)
(-0.387146 0.681953 -0.285859)
(-0.274594 0.252536 -0.109869)
(0.964773 -0.0244175 0.0311973)
(0.931572 0.0494463 0.00211963)
(0.988191 0.00293405 0.0592283)
(0.967926 -0.0801712 0.160353)
(0.665163 -0.175605 0.165712)
(0.644273 -0.0831969 0.267942)
(0.432417 0.492883 0.17089)
(-0.168745 0.995865 -0.0622166)
(0.02651 0.977904 -0.147455)
(0.183015 0.90364 -0.140673)
(0.328699 0.836782 -0.136451)
(0.447986 0.749542 -0.117425)
(0.561274 0.650138 -0.0825552)
(0.641086 0.558135 -0.0549961)
(0.467738 0.334142 -0.110353)
(0.539921 0.0316104 -0.0539888)
(0.368031 0.429294 0.253417)
(-0.259627 0.938213 0.242569)
(-0.4893 1.07768 0.140722)
(-0.659817 1.1117 0.0588615)
(-0.704264 1.04662 -0.002333)
(-0.619283 0.892012 -0.0833048)
(-0.508487 0.799737 -0.172701)
(-0.508206 0.763732 -0.122967)
(-0.395458 0.215645 -0.00462797)
(0.965301 -0.024847 0.0336002)
(0.918208 0.0585229 0.00439458)
(0.994763 0.00540546 0.0519861)
(0.891447 -0.0654252 0.177861)
(0.54844 -0.190715 0.195159)
(0.453899 -0.165666 0.327457)
(0.159638 0.454911 0.231284)
(-0.321534 0.954956 0.00474139)
(-0.122389 0.946512 -0.0781622)
(0.0730614 0.878803 -0.0873446)
(0.250175 0.832527 -0.0948508)
(0.384949 0.733132 -0.08523)
(0.507351 0.65675 -0.090357)
(0.605959 0.577561 -0.0853551)
(0.523234 0.400479 -0.100411)
(0.564534 0.131804 -0.00991974)
(0.370711 0.451794 0.272313)
(-0.21824 0.939231 0.280798)
(-0.429924 1.04783 0.220626)
(-0.62252 1.08136 0.176659)
(-0.730762 1.04745 0.121904)
(-0.654878 0.901475 0.0486068)
(-0.506969 0.779412 -0.0259107)
(-0.526815 0.761622 -0.0233492)
(-0.356867 0.144526 0.00350922)
(0.965966 -0.0243977 0.0355114)
(0.904959 0.0652429 0.0163097)
(1.00051 0.0442275 0.0145915)
(0.84553 -0.0511875 0.201511)
(0.489846 -0.172835 0.207642)
(0.24862 -0.226515 0.342233)
(-0.0876201 0.354876 0.33826)
(-0.445138 0.821559 0.147893)
(-0.262962 0.863174 0.0437886)
(-0.0284342 0.824741 -0.0030312)
(0.18133 0.804925 -0.0349655)
(0.332881 0.713602 -0.0416273)
(0.460761 0.657917 -0.0876449)
(0.566979 0.590227 -0.106877)
(0.545897 0.455127 -0.0966397)
(0.595383 0.220208 0.0104894)
(0.408646 0.447923 0.280248)
(-0.136076 0.888507 0.308428)
(-0.320959 0.970448 0.28167)
(-0.535704 0.997854 0.255353)
(-0.693099 0.959746 0.204026)
(-0.632356 0.806764 0.156765)
(-0.456791 0.652654 0.0671375)
(-0.432668 0.735085 -0.017226)
(-0.533229 0.264881 0.0215523)
(0.966195 -0.0221536 0.0352643)
(0.887268 0.0560057 0.040706)
(1.03139 0.0949881 9.75378e-05)
(0.920702 0.00989987 0.169551)
(0.513889 -0.120997 0.298207)
(0.0706338 -0.194408 0.349767)
(-0.272598 0.212724 0.462595)
(-0.525548 0.622013 0.32109)
(-0.369441 0.733646 0.184718)
(-0.108434 0.745964 0.0922835)
(0.12834 0.754242 0.0341204)
(0.29254 0.690634 0.004476)
(0.419764 0.6434 -0.0745411)
(0.535286 0.585835 -0.114791)
(0.561317 0.469285 -0.104427)
(0.631288 0.267024 -0.00692721)
(0.478311 0.424068 0.260057)
(-0.0233332 0.800979 0.312502)
(-0.177641 0.858992 0.310714)
(-0.406252 0.868957 0.28975)
(-0.584148 0.783658 0.249609)
(-0.565317 0.584732 0.2053)
(-0.37356 0.389813 0.0354661)
(-0.0630673 0.515434 -0.0851755)
(-0.586765 0.319491 0.0845321)
(0.969224 -0.0165514 0.0351556)
(0.878746 0.0305923 0.050712)
(1.00191 0.0973035 0.0539134)
(1.07503 0.110769 0.055176)
(0.702512 -0.0323263 0.328248)
(0.113009 -0.176014 0.45377)
(-0.355271 0.00517142 0.511407)
(-0.552627 0.368221 0.44096)
(-0.429944 0.557156 0.295945)
(-0.160365 0.638692 0.176603)
(0.0954194 0.678556 0.104749)
(0.264228 0.659267 0.0458642)
(0.381527 0.606044 -0.0559605)
(0.510111 0.553123 -0.113737)
(0.581422 0.441319 -0.119815)
(0.677959 0.268516 -0.0576296)
(0.591347 0.38666 0.210333)
(0.173081 0.670118 0.291971)
(0.0345417 0.719148 0.298693)
(-0.165175 0.716454 0.299365)
(-0.368445 0.564308 0.294545)
(-0.47298 0.289656 0.234498)
(-0.306577 -0.00304782 -0.0417424)
(0.626877 -0.0663118 -0.165251)
(-1.03469 0.453438 0.502865)
(0.975674 -0.0124547 0.0366004)
(0.885843 0.0217882 0.0382044)
(0.907776 0.0462072 0.132469)
(1.02573 0.0951564 0.250851)
(0.968405 0.0118739 0.25004)
(0.514704 -0.0358927 0.298003)
(-0.238966 -0.146202 0.330952)
(-0.49016 0.0843379 0.420563)
(-0.431801 0.339263 0.355559)
(-0.178336 0.502912 0.245051)
(0.0864839 0.582144 0.168159)
(0.246421 0.596715 0.0789165)
(0.341961 0.540178 -0.0327641)
(0.489649 0.496847 -0.105279)
(0.61659 0.401186 -0.131521)
(0.735944 0.243716 -0.125282)
(0.730383 0.326215 0.107366)
(0.470117 0.520152 0.24523)
(0.310403 0.552254 0.271927)
(0.0589894 0.561076 0.328495)
(-0.210491 0.413129 0.413158)
(-0.376705 0.296688 0.477832)
(-0.29932 0.254249 0.494397)
(0.323899 0.173867 0.541207)
(-2.17016 1.51871 2.58036)
(0.989993 -0.014182 0.0362956)
(0.882702 0.0160568 0.0612049)
(0.904044 0.0138547 0.0750114)
(0.852442 0.0363351 0.240359)
(0.644614 0.0544158 0.36064)
(0.647067 0.0677775 0.186449)
(0.293943 0.129505 0.232132)
(-0.278979 -0.000746966 0.184805)
(-0.353289 0.138301 0.366817)
(-0.153707 0.350857 0.302002)
(0.0937332 0.459384 0.228196)
(0.227419 0.498403 0.117514)
(0.306255 0.458243 -0.000606231)
(0.472042 0.434949 -0.0835268)
(0.658976 0.364274 -0.136319)
(0.818031 0.220561 -0.175516)
(0.885655 0.247432 -0.0300249)
(0.800329 0.364357 0.143243)
(0.660068 0.407171 0.23834)
(0.38765 0.399831 0.287312)
(0.238196 0.119602 0.300039)
(0.206557 -0.31458 0.27383)
(-0.0562165 -0.437064 0.159331)
(-0.0356384 -0.316454 0.212103)
(-0.670075 2.49378 2.03889)
(1.00096 -0.0224363 0.0332167)
(0.888663 0.0109754 0.0768824)
(0.893897 -0.0182437 0.0660324)
(0.817473 -0.0382752 0.158389)
(0.437609 0.0384785 0.277469)
(0.325323 0.284496 0.337864)
(0.475741 0.372836 0.262143)
(0.239565 0.163633 0.139403)
(-0.176629 -0.0924791 0.290114)
(-0.123367 0.194094 0.340991)
(0.0975524 0.314374 0.296957)
(0.198157 0.377337 0.161749)
(0.265568 0.359489 0.0386981)
(0.44028 0.354292 -0.0490586)
(0.666577 0.298708 -0.122649)
(0.905346 0.188941 -0.198711)
(1.1011 0.167609 -0.154533)
(1.19916 0.20678 -0.0108098)
(1.16344 0.218344 0.12923)
(1.02668 0.14822 0.21529)
(1.05178 -0.0742414 0.217414)
(0.918063 -0.325409 0.246796)
(0.49985 -0.556253 0.106842)
(-0.0163157 -0.81739 -0.40137)
(0.428376 -1.81649 -2.12762)
(1.02184 -0.0312608 0.0231903)
(0.935549 -0.0050884 0.084096)
(0.893364 -0.034034 0.0935324)
(0.841031 -0.158631 0.277148)
(0.551802 -0.190909 0.368517)
(0.395049 -0.107624 0.160241)
(0.561236 0.0509049 0.141216)
(0.687732 0.113788 0.169271)
(0.415088 -0.0659299 0.0914968)
(-0.0415236 -0.0624724 0.29578)
(0.0735785 0.150629 0.327129)
(0.166379 0.243677 0.19056)
(0.232051 0.237457 0.061614)
(0.388729 0.266323 -0.0166329)
(0.624626 0.247305 -0.0908006)
(0.911163 0.178679 -0.19832)
(1.23013 0.148177 -0.249304)
(1.53797 0.150458 -0.194594)
(1.73611 0.107542 -0.101918)
(1.96967 -0.00712513 -0.0515197)
(2.03425 -0.154584 -0.0173564)
(1.77247 -0.251488 0.0629192)
(1.22458 -0.272552 0.130298)
(0.558798 -0.233972 -0.153737)
(0.875899 0.107545 -1.06768)
(0.9724 -0.0192021 0.0104849)
(0.801376 -0.00856322 0.1063)
(0.648721 -0.0254676 0.165061)
(0.338514 -0.11143 0.335269)
(0.087733 -0.00876809 -0.216344)
(0.39525 0.129737 0.302872)
(0.552775 0.1979 0.0558884)
(0.877111 0.311509 0.218665)
(0.72484 0.348076 0.279834)
(0.135029 0.237227 0.198485)
(0.171714 -0.141627 0.258546)
(0.0471447 -0.081156 0.193762)
(0.0298864 0.0626454 0.0977282)
(0.235247 0.172344 0.0371188)
(0.49242 0.258914 -0.0160664)
(0.858959 0.283882 -0.137998)
(1.20879 0.281327 -0.252639)
(1.56438 0.290226 -0.291915)
(1.9283 0.27358 -0.28305)
(2.10376 0.191745 -0.224042)
(1.94432 0.0723242 -0.149582)
(1.56268 0.0224017 -0.0965578)
(1.14834 0.0497724 -0.0186167)
(0.769898 0.0682103 -0.0411926)
(1.03175 0.161925 -0.445908)
(1.00944 0.00434184 0.011984)
(0.990423 0.00756051 -0.0145708)
(0.980862 0.0214018 -0.0200504)
(0.983325 0.0465571 -0.00547706)
(0.94694 0.0540235 -0.0165862)
(0.873138 0.0548369 -0.066211)
(0.833951 0.0291615 -0.131172)
(0.856586 -0.00849169 -0.166662)
(0.854264 -0.0402048 -0.143143)
(0.80331 -0.0658098 -0.0557599)
(0.66434 -0.0681132 -0.0539403)
(0.533495 0.0244776 -0.203068)
(0.626592 0.104098 -0.232564)
(0.772509 0.237733 -0.23326)
(0.803644 0.329411 -0.21782)
(0.893135 0.288373 -0.190775)
(1.06436 0.25166 -0.197598)
(1.2114 0.291832 -0.198708)
(1.17389 0.31435 -0.164871)
(0.95748 0.258043 -0.166598)
(0.744849 0.242754 -0.0886617)
(0.672177 0.230675 0.10857)
(0.641534 0.103212 0.289352)
(0.52415 0.0252891 0.362214)
(0.280592 0.0429773 0.192117)
(1.02466 0.0029752 0.0111699)
(1.02498 0.0124507 -0.0146077)
(1.0422 0.0180686 -0.0232534)
(1.11516 0.0496983 0.00462456)
(1.13329 0.0695977 -0.00495388)
(1.07815 0.0756081 -0.0714797)
(1.05989 0.0657223 -0.151583)
(1.1036 0.0435174 -0.181242)
(1.11619 0.0246122 -0.14929)
(1.06898 0.0274534 -0.179522)
(1.0061 0.01287 -0.26426)
(1.09605 -0.160241 -0.0417733)
(1.16132 -0.190171 0.116556)
(1.10293 -0.169767 0.0717434)
(1.07286 -0.169665 0.05479)
(1.21787 -0.21714 0.141659)
(1.3681 -0.223728 0.178016)
(1.44496 -0.195298 0.131264)
(1.515 -0.0341541 0.0954256)
(1.46333 0.235277 0.138625)
(1.23965 0.352548 0.222313)
(0.849731 0.144203 0.229531)
(0.636846 -0.11297 0.256358)
(0.419433 -0.0254128 0.451361)
(0.386623 0.173989 0.180921)
(1.01843 -0.000613945 0.00958574)
(1.01004 0.0158253 -0.0133018)
(1.02191 0.00407333 -0.0264743)
(1.07399 0.0260189 -0.00333353)
(1.06719 0.049594 -0.0229677)
(1.04201 0.0529725 -0.0544924)
(1.04235 0.107711 -0.0904344)
(1.07136 0.14028 -0.110985)
(1.0876 0.140763 -0.118422)
(1.07735 0.137206 -0.214788)
(1.12326 0.076664 -0.200272)
(1.21658 -0.123172 0.0503949)
(1.2176 -0.253415 0.175708)
(1.1544 -0.201425 0.244708)
(1.20641 -0.196764 0.184067)
(1.32828 -0.311746 0.157443)
(1.38521 -0.296262 0.241809)
(1.41991 -0.177723 0.271765)
(1.39866 -0.0732099 0.302712)
(1.33835 0.164438 0.376226)
(1.08322 0.337477 0.339663)
(0.684312 0.139672 0.265946)
(0.526224 -0.134562 0.237919)
(0.283979 -0.103783 0.343888)
(0.371377 0.154813 0.143165)
(1.01645 -0.00128243 0.00873117)
(1.00998 0.0180076 -0.0121984)
(1.02974 0.0146196 -0.0276122)
(1.06604 0.0357625 -0.0139621)
(1.04865 0.0492257 -0.0326556)
(1.06157 0.0512679 -0.0380845)
(1.07628 0.0799532 -0.0578118)
(1.08501 0.127685 -0.10021)
(1.08347 0.16825 -0.160784)
(1.06495 0.167008 -0.217983)
(1.08109 0.123594 -0.222362)
(1.09658 0.098856 -0.19776)
(1.08297 0.0655418 -0.123209)
(1.10771 -0.0945058 0.044825)
(1.29449 -0.23266 -0.00601514)
(1.46084 -0.342075 -0.0195665)
(1.50045 -0.327444 0.0994256)
(1.4706 -0.164663 0.278521)
(1.29712 -0.0223147 0.466832)
(1.02644 0.209702 0.435875)
(0.681108 0.323447 0.35416)
(0.438256 0.0901867 0.299884)
(0.400891 -0.152314 0.182634)
(0.223679 -0.193839 0.184607)
(0.293881 0.0297582 0.134688)
(1.01749 -0.0013523 0.00864217)
(1.01347 0.0205306 -0.0116946)
(1.03607 0.0217214 -0.0296711)
(1.06367 0.043617 -0.0215898)
(1.04944 0.0459212 -0.0357288)
(1.04336 0.0264347 -0.0611607)
(1.05862 -0.00462237 -0.104597)
(1.09102 0.018884 -0.178408)
(1.10337 0.093039 -0.280992)
(1.06505 0.128392 -0.349526)
(1.01585 0.127603 -0.354928)
(1.02331 0.100733 -0.316719)
(0.998718 0.122426 -0.266258)
(1.05942 0.0295187 -0.196073)
(1.29429 -0.204496 -0.19548)
(1.40701 -0.371399 -0.0724657)
(1.43071 -0.294136 0.0743406)
(1.3235 -0.0813672 0.370849)
(0.87334 0.0710374 0.624514)
(0.515936 0.26046 0.453062)
(0.280128 0.21754 0.378872)
(0.271436 0.0362701 0.267961)
(0.284924 -0.155222 0.0617053)
(0.195373 -0.214606 -0.0168758)
(0.25306 -0.0863992 -0.000452993)
(1.01911 -0.00195967 0.00884651)
(1.01606 0.0234594 -0.00985881)
(1.03981 0.0256587 -0.0362682)
(1.06467 0.0510119 -0.0259696)
(1.05059 0.0545389 -0.0308975)
(1.04335 0.0312289 -0.0751162)
(1.10404 0.00848365 -0.105385)
(1.16373 0.0550358 -0.150824)
(1.1705 0.118265 -0.28469)
(1.10117 0.12081 -0.411063)
(1.00448 0.124614 -0.439409)
(0.987657 0.116898 -0.391058)
(0.95869 0.119211 -0.316704)
(1.04178 0.0212619 -0.258616)
(1.23135 -0.212383 -0.241096)
(1.27179 -0.401437 -0.0198829)
(1.19259 -0.297312 0.173465)
(0.929444 -0.000960373 0.548917)
(0.359084 0.203343 0.653923)
(0.120336 0.253354 0.402832)
(0.0961384 0.1197 0.338647)
(0.171017 -0.0488993 0.160265)
(0.201112 -0.185894 -0.102325)
(0.202929 -0.23572 -0.249393)
(0.287675 -0.135922 -0.240422)
(1.02081 -0.00305319 0.00984543)
(1.01781 0.0260399 -0.0086242)
(1.04463 0.0305223 -0.0414535)
(1.07249 0.0542462 -0.0198599)
(1.04294 0.07001 -0.0279842)
(1.0506 0.0439417 -0.077857)
(1.16804 0.0147327 -0.101241)
(1.24339 0.0944512 -0.073715)
(1.22539 0.152603 -0.16599)
(1.14646 0.127386 -0.331176)
(1.03569 0.115844 -0.415167)
(0.978911 0.11268 -0.40177)
(0.940168 0.0849734 -0.338359)
(0.995247 0.0390312 -0.307109)
(1.10133 -0.18521 -0.244726)
(1.10649 -0.399572 0.0587792)
(0.910623 -0.248707 0.286059)
(0.481115 0.139693 0.592296)
(0.0537044 0.277292 0.478677)
(-0.0354089 0.17687 0.266379)
(0.0516655 -0.0241151 0.206826)
(0.11928 -0.12583 -0.00549828)
(0.151064 -0.219515 -0.284445)
(0.208864 -0.268242 -0.443326)
(0.331314 -0.156286 -0.440658)
(1.02162 -0.00455075 0.0122167)
(1.01937 0.0287059 -0.00834237)
(1.04713 0.0341468 -0.0442185)
(1.08734 0.0547083 -0.0104353)
(1.05275 0.0783586 -0.0173057)
(1.07971 0.0628321 -0.050287)
(1.22857 0.0472027 -0.0807109)
(1.28139 0.127588 -0.0301802)
(1.22457 0.179879 -0.0601938)
(1.16151 0.15495 -0.227764)
(1.06739 0.130846 -0.33204)
(0.982803 0.120297 -0.342113)
(0.932178 0.103242 -0.289859)
(0.912436 0.0664719 -0.277329)
(0.967208 -0.153886 -0.198102)
(0.920433 -0.358616 0.0961953)
(0.571906 -0.123035 0.400509)
(0.16247 0.230536 0.441922)
(-0.0316287 0.266321 0.238309)
(-0.0391822 0.0932514 0.106458)
(0.0557723 -0.136613 0.0385388)
(0.0921767 -0.199336 -0.208617)
(0.12373 -0.248737 -0.46905)
(0.20175 -0.285028 -0.571578)
(0.352915 -0.188914 -0.555406)
(1.02183 -0.00607062 0.0156294)
(1.01918 0.0316702 -0.00873441)
(1.04914 0.0357141 -0.0429215)
(1.10154 0.06269 -0.0040328)
(1.08262 0.0800561 0.00459032)
(1.13986 0.0785202 -0.00793441)
(1.30084 0.095318 -0.0469883)
(1.29785 0.182306 -0.00544955)
(1.197 0.235307 -0.00663894)
(1.15561 0.217115 -0.159735)
(1.08934 0.18678 -0.255048)
(0.985801 0.169338 -0.253293)
(0.913503 0.175712 -0.195173)
(0.836797 0.102689 -0.194198)
(0.851544 -0.0985213 -0.144901)
(0.745946 -0.292143 0.140227)
(0.356327 0.0150528 0.415383)
(0.00862825 0.283816 0.272526)
(-0.0497374 0.291545 0.0750222)
(-0.0106718 0.0887449 -0.0208218)
(0.0409281 -0.163036 -0.129792)
(0.0590662 -0.215745 -0.384526)
(0.099305 -0.236834 -0.591441)
(0.182925 -0.258288 -0.628384)
(0.354167 -0.208834 -0.581214)
(1.02107 -0.00677759 0.0197249)
(1.01738 0.0338298 -0.00942536)
(1.05242 0.0398817 -0.0396401)
(1.11593 0.0690538 0.00536676)
(1.12643 0.0650683 0.034568)
(1.22779 0.0449301 0.0395989)
(1.38207 0.106692 -0.0109839)
(1.31608 0.235316 0.00779337)
(1.17993 0.304144 -0.00323729)
(1.15056 0.292241 -0.138003)
(1.09615 0.260262 -0.209117)
(0.977994 0.243772 -0.172957)
(0.891485 0.240056 -0.104126)
(0.814523 0.152929 -0.130786)
(0.724692 -0.0708385 -0.115736)
(0.632089 -0.189513 0.207478)
(0.22632 0.122225 0.377949)
(-0.0388349 0.356372 0.177945)
(-0.0613757 0.359897 -0.046756)
(0.015855 0.135473 -0.164908)
(0.0125584 -0.105038 -0.278853)
(0.010227 -0.159741 -0.501354)
(0.0622693 -0.180429 -0.648343)
(0.158349 -0.19462 -0.629212)
(0.336173 -0.205457 -0.56088)
(1.02151 -0.00687845 0.023997)
(1.01692 0.0345821 -0.0101104)
(1.05426 0.0499408 -0.0339664)
(1.1229 0.0635225 0.020905)
(1.185 0.017798 0.0731743)
(1.34221 -0.0320861 0.103026)
(1.47028 0.0920136 0.0400948)
(1.34683 0.284237 0.0147023)
(1.1899 0.377158 -0.0402875)
(1.1549 0.364491 -0.157175)
(1.09122 0.326094 -0.190309)
(0.962449 0.305559 -0.112237)
(0.870273 0.274288 -0.0332734)
(0.829907 0.196132 -0.0959293)
(0.640874 -0.0238782 -0.100319)
(0.660786 -0.0402386 0.223959)
(0.148347 0.207483 0.330139)
(-0.0503119 0.39341 0.0835534)
(-0.0788905 0.410084 -0.18006)
(-0.0372111 0.255183 -0.323297)
(-0.0323188 -0.00184519 -0.419877)
(-0.0466074 -0.0824813 -0.580486)
(0.0123663 -0.0999119 -0.676176)
(0.109659 -0.11335 -0.613537)
(0.287513 -0.167808 -0.535808)
(1.0242 -0.00774752 0.0284518)
(1.01915 0.0344431 -0.0106253)
(1.05433 0.0599575 -0.0247548)
(1.13624 0.0472033 0.0471655)
(1.25192 -0.0478668 0.116527)
(1.45871 -0.104891 0.169429)
(1.55838 0.0925407 0.104056)
(1.38376 0.349439 0.0180319)
(1.21346 0.461259 -0.0970402)
(1.161 0.436741 -0.198157)
(1.07961 0.386201 -0.189082)
(0.946316 0.357612 -0.0793157)
(0.85195 0.310867 0.00465138)
(0.83995 0.220472 -0.0632208)
(0.685468 0.0550535 -0.112435)
(0.682344 0.0838822 0.175099)
(0.103017 0.294714 0.282719)
(-0.0977135 0.434542 0.00276124)
(-0.17522 0.485795 -0.278393)
(-0.188698 0.414547 -0.443491)
(-0.151298 0.167461 -0.521242)
(-0.140729 0.025681 -0.638678)
(-0.0542225 -0.00625967 -0.69248)
(0.0191735 -0.016337 -0.612188)
(0.168797 -0.0817527 -0.554239)
(1.02883 -0.010657 0.0326579)
(1.02022 0.0355691 -0.0101553)
(1.05183 0.0673882 -0.0191849)
(1.17122 0.0148273 0.0813978)
(1.31783 -0.130885 0.16726)
(1.54841 -0.171954 0.230424)
(1.62513 0.116981 0.174432)
(1.41309 0.439636 0.0298261)
(1.23177 0.560856 -0.140456)
(1.15994 0.516756 -0.230506)
(1.06396 0.454751 -0.191401)
(0.927935 0.418812 -0.0712429)
(0.837489 0.36384 0.00538805)
(0.832169 0.258967 -0.0425913)
(0.765082 0.140535 -0.125718)
(0.683748 0.188634 0.123847)
(0.0857727 0.38915 0.262046)
(-0.188583 0.483483 -0.00952472)
(-0.343564 0.535548 -0.295094)
(-0.392902 0.506312 -0.495365)
(-0.347701 0.32466 -0.57333)
(-0.295535 0.160213 -0.636519)
(-0.180226 0.108005 -0.673736)
(-0.113629 0.0800985 -0.602988)
(-0.0447368 -0.0164887 -0.476562)
(1.03201 -0.0151249 0.0373487)
(1.01842 0.0402235 -0.00997494)
(1.05718 0.0610649 -0.00508529)
(1.21783 -0.0363882 0.124691)
(1.35434 -0.216805 0.222232)
(1.57536 -0.232156 0.289161)
(1.64028 0.156071 0.253839)
(1.41567 0.554679 0.0600725)
(1.22558 0.678152 -0.155007)
(1.1397 0.613353 -0.243238)
(1.03881 0.540302 -0.193035)
(0.904103 0.492667 -0.0834843)
(0.817077 0.428775 -0.0242231)
(0.806553 0.312796 -0.0563401)
(0.774029 0.205241 -0.132523)
(0.674108 0.264877 0.0983124)
(0.0719192 0.476488 0.269047)
(-0.279718 0.518216 0.0454411)
(-0.505275 0.532732 -0.215689)
(-0.601797 0.504532 -0.45591)
(-0.580251 0.386939 -0.562461)
(-0.501641 0.259645 -0.586036)