/*--------------------------------*- C++ -*----------------------------------*\
  =========                 |
  \\      /  F ield         | OpenFOAM: The Open Source CFD Toolbox
   \\    /   O peration     | Website:  https://openfoam.org
    \\  /    A nd           | Version:  11
     \\/     M anipulation  |
\*---------------------------------------------------------------------------*/
FoamFile
{
    format      ascii;
    class       volScalarField;
    location    "200";
    object      epsilon;
}
// * * * * * * * * * * * * * * * * * * * * * * * * * * * * * * * * * * * * * //

dimensions      [0 2 -3 0 0 0 0];

internalField   nonuniform List<scalar> 
729
(
31.638
150.577
254.549
319.967
353.04
346.341
315.904
257.308
105.365
6.8832
13.7951
38.627
62.5998
85.4933
99.8578
101.04
89.947
64.9314
0.152831
0.548759
1.12772
3.74936
10.2256
21.1767
32.7751
40.5728
36.9374
0.0222163
0.0501651
0.144333
0.292591
1.2282
4.90018
13.109
22.0568
22.5787
0.0213056
0.0607509
0.138392
0.256035
0.637909
2.08808
6.7218
13.3909
14.294
0.0236434
0.0698252
0.173732
0.323601
0.596771
1.47461
4.37139
8.81477
9.41909
0.0238281
0.0784018
0.178763
0.338943
0.611088
1.25442
3.21867
5.92271
6.16236
0.0240786
0.080396
0.188757
0.359932
0.617445
1.13975
2.67787
4.45985
4.45718
0.0241797
0.0815993
0.18854
0.360637
0.617745
1.03709
1.96966
2.82002
2.63703
117.59
425.464
570.008
662.899
712.532
711.039
659.633
560.44
451.606
8.8871
54.5147
106.129
151.947
185.717
202.492
201.349
198.829
257.621
0.187901
2.05551
10.1409
22.4436
38.1914
53.3295
66.1723
83.374
122.79
0.0513244
0.134135
0.26112
2.31122
6.30106
14.6331
26.0351
41.589
64.2184
0.0643766
0.0662834
0.154409
0.508973
1.63502
5.34313
12.6425
23.3387
36.1964
0.0678217
0.0866307
0.170462
0.398834
1.03694
2.98707
7.45923
14.2983
21.7675
0.0732718
0.0869443
0.192662
0.413223
0.909755
2.19135
5.04566
9.20223
13.3744
0.0741279
0.0886726
0.19961
0.435078
0.878229
1.8267
3.78384
6.45355
9.14629
0.0747205
0.0893984
0.203279
0.441195
0.867647
1.58254
2.74564
3.99796
5.20194
149.98
488.339
652.522
769.496
837.466
844.844
793.819
692.066
686.167
12.0813
74.242
143.98
204.081
247.486
269.448
270.844
276.936
390.056
0.318876
4.79679
18.8843
39.9352
62.2684
81.5922
97.9047
122.141
183.226
0.101068
0.177612
1.35645
5.22474
13.7408
25.6307
40.6872
61.7791
94.9801
0.113978
0.116352
0.28307
0.987645
3.58388
9.67103
19.8548
34.3737
52.8301
0.120649
0.119105
0.239384
0.597716
1.73966
4.9507
11.3486
20.6532
31.2534
0.125458
0.125762
0.255052
0.558635
1.3135
3.29525
7.34033
13.0371
18.9317
0.126564
0.126861
0.264812
0.561925
1.1743
2.54688
5.25105
8.92107
12.732
0.127066
0.127827
0.269072
0.567391
1.12336
2.09913
3.69344
5.45673
7.15659
165.275
509.88
683.991
813.886
892.444
905.385
854.043
752.842
785.988
14.4543
82.572
161.888
229.888
279.18
304.681
307.658
316.764
449.16
0.44891
6.63954
24.4925
50.3487
76.4956
98.6451
117.451
144.966
212.085
0.136503
0.319709
2.16117
7.98018
18.9904
33.2288
50.7802
74.7696
110.594
0.144179
0.152478
0.402401
1.53419
5.29108
13.0597
25.2328
41.8574
61.6071
0.156706
0.14882
0.303447
0.785942
2.39687
6.61877
14.3916
25.0763
36.3759
0.158697
0.154564
0.303839
0.679245
1.66614
4.23144
9.17115
15.714
21.9704
0.162303
0.156137
0.315109
0.664056
1.41551
3.1396
6.42525
10.6401
14.6973
0.161965
0.157122
0.319282
0.663939
1.32004
2.50354
4.42329
6.44367
8.22326
170.692
514.944
692.396
826.475
908.447
923.154
871.767
770.825
813.815
15.3975
84.8955
167.208
237.757
288.986
315.674
319.155
328.954
465.509
0.497765
7.27467
26.3914
53.7986
81.2009
104.312
123.956
152.374
220.51
0.150572
0.348566
2.47051
9.02652
20.8727
35.9198
54.3196
79.1255
115.222
0.154374
0.170326
0.451709
1.77076
5.96508
14.333
27.1964
44.4223
64.2504
0.169263
0.157204
0.326579
0.865149
2.66806
7.27214
15.5318
26.6121
37.938
0.170684
0.165301
0.323047
0.726931
1.80948
4.60259
9.86518
16.6473
22.9037
0.174393
0.166637
0.333562
0.702694
1.51063
3.37348
6.87231
11.24
15.3007
0.174054
0.167635
0.337601
0.700029
1.3953
2.66
4.69745
6.78413
8.54979
165.989
510.621
684.398
814.547
893.163
906.035
854.604
753.29
786.494
14.4835
82.4452
162.079
230.25
279.571
305.04
307.984
317.073
449.516
0.425586
6.66783
24.5881
50.4896
76.6691
98.8251
117.636
145.161
212.304
0.127838
0.806195
2.13519
8.03394
19.0449
33.3099
50.8812
74.8906
110.726
0.143268
0.143047
0.395962
1.5442
5.30625
13.0959
25.2891
41.9319
61.6874
0.15563
0.149726
0.302261
0.785829
2.40165
6.63525
14.4242
25.1228
36.4265
0.157743
0.153453
0.302514
0.678395
1.6678
4.24011
9.19112
15.7431
22.0022
0.161233
0.155373
0.313988
0.663086
1.41623
3.14495
6.43852
10.6598
14.7195
0.160933
0.156206
0.318017
0.662977
1.32049
2.50706
4.43148
6.45514
8.23613
149.578
492.553
653.603
770.939
838.883
846.063
794.864
692.788
687.221
12.0098
74.4807
144.495
204.859
248.253
270.12
271.447
277.462
390.773
0.330639
5.14987
19.0097
40.201
62.5773
81.9109
98.2276
122.467
183.615
0.0974636
0.251861
1.22485
5.42482
13.7905
25.7581
40.854
61.9801
95.2152
0.111602
0.117514
0.274709
1.00751
3.59448
9.7242
19.9433
34.4964
52.9726
0.119603
0.118054
0.236745
0.59617
1.74386
4.97276
11.3985
20.7292
31.3423
0.122117
0.123882
0.252033
0.556522
1.31495
3.30705
7.3707
13.0848
18.9878
0.125156
0.125102
0.26245
0.559684
1.17479
2.5545
5.27154
8.95365
12.7714
0.124878
0.125904
0.266272
0.565199
1.12369
2.10443
3.70646
5.47603
7.17967
112.474
438.743
572.142
665.036
714.364
712.59
661.025
560.844
453.43
7.66633
57.7108
107.384
153.198
186.784
203.367
202.155
199.368
258.648
0.235301
3.33645
10.1474
22.8039
38.5665
53.6959
66.5443
83.7107
123.291
0.0486993
0.186222
0.258003
2.33009
6.37157
14.7514
26.2068
41.7871
64.4857
0.0609219
0.0616281
0.149768
0.50859
1.64162
5.38025
12.7253
23.4556
36.348
0.0655841
0.0855901
0.167171
0.395508
1.03683
3.00167
7.50317
14.37
21.8601
0.0708507
0.0844548
0.184466
0.409536
0.909401
2.19961
5.07216
9.24732
13.4318
0.0717556
0.0864639
0.197259
0.431706
0.877786
1.83259
3.80216
6.48496
9.18683
0.0722886
0.0869802
0.198993
0.437828
0.867322
1.58712
2.75782
4.01716
5.22616
31.9008
145.938
257.254
322.85
355.49
348.145
318.837
255.266
107.075
4.09464
24.5219
39.1171
64.4284
86.5814
100.794
101.612
90.5898
65.576
0.243366
0.343308
1.29127
3.86048
10.459
21.466
33.058
40.836
37.183
0.0210733
0.0500971
0.141401
0.294504
1.23822
4.9648
13.2257
22.1861
22.699
0.0193642
0.0551577
0.132798
0.252617
0.635042
2.1014
6.77127
13.4617
14.3642
0.0215998
0.0660882
0.158379
0.318851
0.593563
1.47649
4.39562
8.85905
9.46581
0.021775
0.0740562
0.178158
0.335506
0.607012
1.25417
3.23231
5.95194
6.19405
0.0219829
0.0759786
0.180767
0.353648
0.614068
1.13978
2.68793
4.48268
4.48186
0.0220284
0.0770085
0.18266
0.354921
0.614107
1.03716
1.97686
2.83473
2.65295
)
;

boundaryField
{
    inlet
    {
        type            fixedValue;
        value           uniform 14.855;
    }
    outlet
    {
        type            zeroGradient;
    }
    lowerWall
    {
        type            epsilonWallFunction;
        value           nonuniform List<scalar> 
162
(
31.638
117.59
149.98
165.275
170.692
165.989
149.578
112.474
31.9008
6.8832
8.8871
12.0813
14.4543
15.3975
14.4835
12.0098
7.66633
4.09464
0.152831
0.187901
0.318876
0.44891
0.497765
0.425586
0.330639
0.235301
0.243366
0.0222163
0.0513244
0.101068
0.136503
0.150572
0.127838
0.0974636
0.0486993
0.0210733
0.0213056
0.0643766
0.113978
0.144179
0.154374
0.143268
0.111602
0.0609219
0.0193642
0.0236434
0.0678217
0.120649
0.156706
0.169263
0.15563
0.119603
0.0655841
0.0215998
0.0238281
0.0732718
0.125458
0.158697
0.170684
0.157743
0.122117
0.0708507
0.021775
0.0240786
0.0741279
0.126564
0.162303
0.174393
0.161233
0.125156
0.0717556
0.0219829
0.0241797
0.0747205
0.127066
0.161965
0.174054
0.160933
0.124878
0.0722886
0.0220284
105.365
451.606
686.167
785.988
813.815
786.494
687.221
453.43
107.075
64.9314
257.621
390.056
449.16
465.509
449.516
390.773
258.648
65.576
36.9374
122.79
183.226
212.085
220.51
212.304
183.615
123.291
37.183
22.5787
64.2184
94.9801
110.594
115.222
110.726
95.2152
64.4857
22.699
14.294
36.1964
52.8301
61.6071
64.2504
61.6874
52.9726
36.348
14.3642
9.41909
21.7675
31.2534
36.3759
37.938
36.4265
31.3423
21.8601
9.46581
6.16236
13.3744
18.9317
21.9704
22.9037
22.0022
18.9878
13.4318
6.19405
4.45718
9.14629
12.732
14.6973
15.3007
14.7195
12.7714
9.18683
4.48186
2.63703
5.20194
7.15659
8.22326
8.54979
8.23613
7.17967
5.22616
2.65295
)
;
    }
    upperWall
    {
        type            epsilonWallFunction;
        value           nonuniform List<scalar> 
162
(
31.638
31.9008
6.8832
4.09464
0.152831
0.243366
0.0222163
0.0210733
0.0213056
0.0193642
0.0236434
0.0215998
0.0238281
0.021775
0.0240786
0.0219829
0.0241797
0.0220284
150.577
145.938
13.7951
24.5219
0.548759
0.343308
0.0501651
0.0500971
0.0607509
0.0551577
0.0698252
0.0660882
0.0784018
0.0740562
0.080396
0.0759786
0.0815993
0.0770085
254.549
257.254
38.627
39.1171
1.12772
1.29127
0.144333
0.141401
0.138392
0.132798
0.173732
0.158379
0.178763
0.178158
0.188757
0.180767
0.18854
0.18266
319.967
322.85
62.5998
64.4284
3.74936
3.86048
0.292591
0.294504
0.256035
0.252617
0.323601
0.318851
0.338943
0.335506
0.359932
0.353648
0.360637
0.354921
353.04
355.49
85.4933
86.5814
10.2256
10.459
1.2282
1.23822
0.637909
0.635042
0.596771
0.593563
0.611088
0.607012
0.617445
0.614068
0.617745
0.614107
346.341
348.145
99.8578
100.794
21.1767
21.466
4.90018
4.9648
2.08808
2.1014
1.47461
1.47649
1.25442
1.25417
1.13975
1.13978
1.03709
1.03716
315.904
318.837
101.04
101.612
32.7751
33.058
13.109
13.2257
6.7218
6.77127
4.37139
4.39562
3.21867
3.23231
2.67787
2.68793
1.96966
1.97686
257.308
255.266
89.947
90.5898
40.5728
40.836
22.0568
22.1861
13.3909
13.4617
8.81477
8.85905
5.92271
5.95194
4.45985
4.48268
2.82002
2.83473
105.365
107.075
64.9314
65.576
36.9374
37.183
22.5787
22.699
14.294
14.3642
9.41909
9.46581
6.16236
6.19405
4.45718
4.48186
2.63703
2.65295
)
;
    }
}


// ************************************************************************* //
