/*--------------------------------*- C++ -*----------------------------------*\
  =========                 |
  \\      /  F ield         | OpenFOAM: The Open Source CFD Toolbox
   \\    /   O peration     | Website:  https://openfoam.org
    \\  /    A nd           | Version:  11
     \\/     M anipulation  |
\*---------------------------------------------------------------------------*/
FoamFile
{
    format      ascii;
    class       volScalarField;
    location    "200";
    object      k;
}
// * * * * * * * * * * * * * * * * * * * * * * * * * * * * * * * * * * * * * //

dimensions      [0 2 -2 0 0 0 0];

internalField   nonuniform List<scalar> 
729
(
2.49503
6.92133
10.0672
11.6964
12.4771
12.3068
11.6551
9.95504
5.65688
0.607269
2.04287
2.79813
3.94928
4.8362
5.37391
5.40805
5.02171
4.06501
0.0854183
0.11449
0.286195
0.599589
1.17417
1.91109
2.55548
2.94891
2.77928
0.0196484
0.0371149
0.0635598
0.125016
0.274965
0.723609
1.38793
1.96366
1.99786
0.0193469
0.0373517
0.0672748
0.105533
0.180201
0.410837
0.888674
1.40767
1.4717
0.0202064
0.0434076
0.0756453
0.114644
0.176722
0.32252
0.667298
1.06519
1.114
0.0208285
0.0449751
0.0805464
0.123716
0.180362
0.290558
0.544291
0.817191
0.8394
0.0208072
0.0469264
0.0815045
0.125385
0.181055
0.27247
0.481457
0.676424
0.676294
0.0208684
0.0469644
0.0820834
0.126488
0.181103
0.255831
0.392282
0.498302
0.476632
5.76181
23.4952
31.8415
36.9687
39.7779
40.1117
37.766
32.3178
14.7318
0.934979
5.01573
9.26527
12.9845
15.6802
17.1151
17.0971
15.9798
10.127
0.0883927
0.41939
1.39964
3.08441
5.09093
6.90007
8.20351
8.76611
6.1763
0.0359331
0.0811737
0.191248
0.554303
1.48896
2.92711
4.37246
5.33173
4.00757
0.0385116
0.0791379
0.152185
0.302653
0.686572
1.54676
2.65477
3.49001
2.73365
0.0423865
0.0956938
0.174665
0.293517
0.542954
1.06665
1.83325
2.42688
1.9472
0.0431835
0.0996446
0.186272
0.311783
0.509856
0.86764
1.39458
1.75427
1.40711
0.0442848
0.103965
0.192613
0.320937
0.499542
0.766508
1.13692
1.35059
1.09211
0.0442822
0.104515
0.194498
0.324788
0.497181
0.706252
0.917413
0.969478
0.749718
7.00064
27.5539
37.6521
44.3861
48.3674
49.36
47.1479
41.2746
19.4307
1.29266
6.68061
12.6536
17.5435
21.007
22.8757
22.9897
21.6608
13.3332
0.117421
0.770112
2.6179
5.28771
7.96938
10.1643
11.6423
12.0947
8.05668
0.0534666
0.126267
0.406794
1.23246
2.81542
4.67259
6.37673
7.33921
5.1987
0.0585098
0.116596
0.238377
0.504397
1.22037
2.46833
3.85816
4.75898
3.5159
0.0613727
0.135468
0.237889
0.421549
0.816102
1.59526
2.59591
3.25734
2.47759
0.0622815
0.141033
0.251763
0.415377
0.699859
1.21541
1.90921
2.32084
1.77369
0.063065
0.146224
0.259877
0.421321
0.657961
1.02447
1.50608
1.75562
1.36145
0.0630948
0.147005
0.26179
0.424445
0.644045
0.918012
1.19195
1.25097
0.927296
7.52964
29.075
39.9782
47.513
52.1287
53.4938
51.2823
45.0028
21.2658
1.48592
7.48061
14.2901
19.7839
23.6755
25.8015
25.9691
24.3947
14.6442
0.146392
1.01134
3.39179
6.57641
9.60992
12.0251
13.5924
13.8706
8.87975
0.0659415
0.169456
0.594756
1.77053
3.68685
5.77546
7.60648
8.46972
5.75282
0.0690029
0.142423
0.296659
0.678908
1.63208
3.10088
4.63567
5.49719
3.89474
0.0717331
0.160351
0.282207
0.511014
1.02458
1.97155
3.10342
3.74642
2.74115
0.0738082
0.16744
0.293189
0.484509
0.831676
1.4572
2.25161
2.65314
1.95861
0.0740197
0.172248
0.300007
0.482022
0.758468
1.19561
1.74629
1.99182
1.49811
0.0741775
0.173359
0.302203
0.483718
0.732458
1.05011
1.3607
1.40945
1.01723
7.68252
29.4755
40.6315
48.4161
53.2305
54.7081
52.4903
46.0658
21.7639
1.54836
7.7197
14.7871
20.4704
24.4991
26.7086
26.887
25.2147
14.9969
0.157858
1.0944
3.65155
7.00097
10.1463
12.6322
14.2233
14.4179
9.11305
0.0701703
0.185296
0.669022
1.96752
3.99115
6.15316
8.02037
8.82951
5.912
0.0724907
0.151745
0.318984
0.748763
1.78631
3.32732
4.90657
5.73538
4.00526
0.0752274
0.168906
0.298265
0.544897
1.10427
2.10979
3.28308
3.90628
2.81901
0.0775294
0.176454
0.307041
0.508702
0.880766
1.54671
2.37312
2.7619
2.01366
0.0776692
0.180929
0.313447
0.503237
0.794512
1.25826
1.8312
2.06904
1.53883
0.077827
0.182195
0.315719
0.503898
0.763234
1.09716
1.41891
1.46019
1.04397
7.53013
29.1169
40.0107
47.5516
52.1666
53.5272
51.3113
45.026
21.2738
1.48243
7.47015
14.3113
19.8138
23.7049
25.8271
25.9911
24.4135
14.6514
0.141583
0.977904
3.39212
6.59388
9.6291
12.0428
13.6083
13.8836
8.88559
0.0627204
0.138637
0.587415
1.77989
3.69638
5.78608
7.61718
8.47874
5.75721
0.0697795
0.142275
0.294888
0.680564
1.63561
3.10657
4.64268
5.5034
3.89802
0.0712665
0.159509
0.281226
0.510598
1.02556
1.97457
3.10804
3.75076
2.74363
0.0735567
0.167052
0.292606
0.483927
0.831906
1.4589
2.25472
2.65619
1.96047
0.0737115
0.171362
0.298957
0.481313
0.758429
1.19669
1.7485
1.99412
1.49961
0.0738654
0.172571
0.301261
0.483015
0.732348
1.05083
1.36216
1.41094
1.01827
7.06867
27.7379
37.7268
44.4646
48.4397
49.4209
47.2002
41.3193
19.443
1.33124
6.67357
12.7084
17.6057
21.0646
22.9239
23.0303
21.6953
13.3455
0.117507
0.775278
2.64433
5.32196
8.00503
10.1965
11.6709
12.119
8.06605
0.0536386
0.127405
0.407208
1.24418
2.82972
4.69054
6.39522
7.35551
5.20627
0.05785
0.115551
0.236175
0.505865
1.22397
2.47701
3.86964
4.77007
3.52172
0.0602324
0.133924
0.236258
0.420373
0.816864
1.59951
2.60328
3.26499
2.48203
0.0619389
0.139815
0.250084
0.413958
0.699789
1.21778
1.91414
2.32621
1.77706
0.0622158
0.144478
0.257758
0.419797
0.657637
1.02599
1.50966
1.75967
1.3642
0.0623744
0.145347
0.259786
0.422952
0.643677
0.91908
1.19438
1.25367
0.929229
6.02717
24.0162
31.9667
37.0725
39.8645
40.1797
37.8246
32.3853
14.7316
1.11525
4.94816
9.36242
13.0735
15.7592
17.177
17.1504
16.0211
10.1342
0.0861049
0.443139
1.42826
3.12671
5.13281
6.93823
8.23795
8.79319
6.18432
0.0350647
0.0830402
0.186292
0.560654
1.50111
2.94458
4.39252
5.34945
4.01478
0.0378085
0.0770659
0.148694
0.300573
0.687322
1.55349
2.6661
3.50178
2.73958
0.0412758
0.0937594
0.172565
0.291261
0.542501
1.06954
1.84006
2.43493
1.95197
0.0422486
0.0976234
0.182878
0.309529
0.509173
0.869318
1.39911
1.75995
1.4108
0.043329
0.102203
0.189902
0.318858
0.498873
0.767672
1.14029
1.35495
1.09519
0.0433267
0.102598
0.191635
0.322742
0.496559
0.707144
0.919831
0.972476
0.75192
2.52136
7.1764
10.1295
11.7523
12.5234
12.3547
11.647
10.0573
5.62485
1.00113
1.49501
2.92277
3.98987
4.88839
5.40716
5.43748
5.03581
4.05804
0.090307
0.174636
0.28288
0.617275
1.19055
1.92822
2.57168
2.96078
2.7806
0.0193473
0.0347624
0.0610706
0.12368
0.277387
0.729087
1.3966
1.9714
2.00123
0.0181781
0.0356668
0.0635468
0.103986
0.179744
0.411979
0.893294
1.41291
1.47518
0.0190303
0.0417579
0.0762137
0.114074
0.175923
0.322926
0.66984
1.069
1.11716
0.0196102
0.0432961
0.0772355
0.122276
0.179598
0.290486
0.545827
0.820034
0.842056
0.0195952
0.0452167
0.0806212
0.124106
0.180291
0.272421
0.482688
0.678813
0.678695
0.0196256
0.0452118
0.0803999
0.125169
0.180396
0.255827
0.39329
0.500117
0.47847
)
;

boundaryField
{
    inlet
    {
        type            fixedValue;
        value           uniform 0.375;
    }
    outlet
    {
        type            zeroGradient;
    }
    lowerWall
    {
        type            kqRWallFunction;
        value           nonuniform List<scalar> 
162
(
2.49503
5.76181
7.00064
7.52964
7.68252
7.53013
7.06867
6.02717
2.52136
0.607269
0.934979
1.29266
1.48592
1.54836
1.48243
1.33124
1.11525
1.00113
0.0854183
0.0883927
0.117421
0.146392
0.157858
0.141583
0.117507
0.0861049
0.090307
0.0196484
0.0359331
0.0534666
0.0659415
0.0701703
0.0627204
0.0536386
0.0350647
0.0193473
0.0193469
0.0385116
0.0585098
0.0690029
0.0724907
0.0697795
0.05785
0.0378085
0.0181781
0.0202064
0.0423865
0.0613727
0.0717331
0.0752274
0.0712665
0.0602324
0.0412758
0.0190303
0.0208285
0.0431835
0.0622815
0.0738082
0.0775294
0.0735567
0.0619389
0.0422486
0.0196102
0.0208072
0.0442848
0.063065
0.0740197
0.0776692
0.0737115
0.0622158
0.043329
0.0195952
0.0208684
0.0442822
0.0630948
0.0741775
0.077827
0.0738654
0.0623744
0.0433267
0.0196256
5.65688
14.7318
19.4307
21.2658
21.7639
21.2738
19.443
14.7316
5.62485
4.06501
10.127
13.3332
14.6442
14.9969
14.6514
13.3455
10.1342
4.05804
2.77928
6.1763
8.05668
8.87975
9.11305
8.88559
8.06605
6.18432
2.7806
1.99786
4.00757
5.1987
5.75282
5.912
5.75721
5.20627
4.01478
2.00123
1.4717
2.73365
3.5159
3.89474
4.00526
3.89802
3.52172
2.73958
1.47518
1.114
1.9472
2.47759
2.74115
2.81901
2.74363
2.48203
1.95197
1.11716
0.8394
1.40711
1.77369
1.95861
2.01366
1.96047
1.77706
1.4108
0.842056
0.676294
1.09211
1.36145
1.49811
1.53883
1.49961
1.3642
1.09519
0.678695
0.476632
0.749718
0.927296
1.01723
1.04397
1.01827
0.929229
0.75192
0.47847
)
;
    }
    upperWall
    {
        type            kqRWallFunction;
        value           nonuniform List<scalar> 
162
(
2.49503
2.52136
0.607269
1.00113
0.0854183
0.090307
0.0196484
0.0193473
0.0193469
0.0181781
0.0202064
0.0190303
0.0208285
0.0196102
0.0208072
0.0195952
0.0208684
0.0196256
6.92133
7.1764
2.04287
1.49501
0.11449
0.174636
0.0371149
0.0347624
0.0373517
0.0356668
0.0434076
0.0417579
0.0449751
0.0432961
0.0469264
0.0452167
0.0469644
0.0452118
10.0672
10.1295
2.79813
2.92277
0.286195
0.28288
0.0635598
0.0610706
0.0672748
0.0635468
0.0756453
0.0762137
0.0805464
0.0772355
0.0815045
0.0806212
0.0820834
0.0803999
11.6964
11.7523
3.94928
3.98987
0.599589
0.617275
0.125016
0.12368
0.105533
0.103986
0.114644
0.114074
0.123716
0.122276
0.125385
0.124106
0.126488
0.125169
12.4771
12.5234
4.8362
4.88839
1.17417
1.19055
0.274965
0.277387
0.180201
0.179744
0.176722
0.175923
0.180362
0.179598
0.181055
0.180291
0.181103
0.180396
12.3068
12.3547
5.37391
5.40716
1.91109
1.92822
0.723609
0.729087
0.410837
0.411979
0.32252
0.322926
0.290558
0.290486
0.27247
0.272421
0.255831
0.255827
11.6551
11.647
5.40805
5.43748
2.55548
2.57168
1.38793
1.3966
0.888674
0.893294
0.667298
0.66984
0.544291
0.545827
0.481457
0.482688
0.392282
0.39329
9.95504
10.0573
5.02171
5.03581
2.94891
2.96078
1.96366
1.9714
1.40767
1.41291
1.06519
1.069
0.817191
0.820034
0.676424
0.678813
0.498302
0.500117
5.65688
5.62485
4.06501
4.05804
2.77928
2.7806
1.99786
2.00123
1.4717
1.47518
1.114
1.11716
0.8394
0.842056
0.676294
0.678695
0.476632
0.47847
)
;
    }
}


// ************************************************************************* //
