/*--------------------------------*- C++ -*----------------------------------*\
  =========                 |
  \\      /  F ield         | OpenFOAM: The Open Source CFD Toolbox
   \\    /   O peration     | Website:  https://openfoam.org
    \\  /    A nd           | Version:  11
     \\/     M anipulation  |
\*---------------------------------------------------------------------------*/
FoamFile
{
    format      ascii;
    class       volScalarField;
    location    "200";
    object      nut;
}
// * * * * * * * * * * * * * * * * * * * * * * * * * * * * * * * * * * * * * //

dimensions      [0 2 -1 0 0 0 0];

internalField   nonuniform List<scalar> 
729
(
0.0177087
0.0286328
0.0358332
0.0384808
0.039687
0.0393578
0.0387006
0.0346638
0.027334
0.00482185
0.0272269
0.0182426
0.0224236
0.0246217
0.026028
0.0260514
0.0252325
0.0229039
0.00429667
0.00214979
0.00653681
0.00862963
0.0121343
0.015522
0.0179326
0.0192899
0.0188209
0.00156396
0.00247136
0.00251908
0.0048074
0.00554021
0.00961696
0.0132255
0.0157337
0.0159102
0.00158114
0.00206686
0.00294331
0.00391487
0.00458138
0.00727502
0.0105741
0.0133178
0.0136371
0.00155421
0.00242863
0.00296433
0.00365541
0.00470995
0.0063486
0.00916775
0.0115848
0.0118578
0.00163859
0.00232199
0.00326631
0.00406411
0.00479103
0.00605711
0.00828378
0.0101477
0.0102904
0.00161823
0.00246515
0.00316739
0.0039311
0.00477819
0.00586232
0.00779056
0.00923336
0.00923534
0.00162095
0.00243273
0.00321625
0.00399274
0.00477842
0.00567977
0.00703149
0.00792455
0.00775342
0.0254092
0.116772
0.160085
0.185551
0.199858
0.203653
0.1946
0.167725
0.0432506
0.00885292
0.0415334
0.0727989
0.0998615
0.11915
0.130195
0.130659
0.115587
0.0358278
0.00374237
0.00770124
0.017386
0.0381498
0.0610761
0.0803493
0.0915306
0.0829517
0.0279599
0.00226416
0.0044211
0.0126066
0.0119645
0.0316661
0.0526966
0.0660898
0.0615177
0.0225084
0.00207347
0.00850368
0.0134994
0.0161972
0.0259473
0.0402986
0.0501721
0.0469698
0.0185807
0.00238413
0.00951346
0.0161074
0.0194409
0.0255866
0.0342803
0.0405499
0.0370725
0.0156767
0.00229056
0.010278
0.0162085
0.021172
0.0257165
0.0309178
0.0346905
0.0300985
0.0133238
0.00238106
0.0109706
0.0167275
0.0213066
0.0255729
0.0289473
0.0307448
0.0254385
0.0117363
0.0023619
0.0109969
0.0167487
0.0215185
0.0256406
0.0283665
0.0275885
0.0211583
0.00972464
0.0294092
0.139922
0.195536
0.230426
0.251409
0.259547
0.252026
0.221544
0.0495211
0.012448
0.0541035
0.100084
0.135729
0.160479
0.17479
0.175626
0.15248
0.0410187
0.00389149
0.0111276
0.0326625
0.0630118
0.0917959
0.113959
0.124599
0.107788
0.0318837
0.00254561
0.00807881
0.0109796
0.0261653
0.0519178
0.0766649
0.0899457
0.0784692
0.0256094
0.0027032
0.0105157
0.0180666
0.0231839
0.0374001
0.0566992
0.0674741
0.0592986
0.0210589
0.00280975
0.0138671
0.0212763
0.0267574
0.0344562
0.0462635
0.0534417
0.0462362
0.0176768
0.00278267
0.0142342
0.0223664
0.027797
0.0335609
0.0403457
0.0446923
0.0371839
0.0149557
0.0028282
0.0151689
0.0229531
0.0284309
0.033179
0.0370878
0.0388772
0.0310946
0.0131023
0.00281969
0.0152154
0.0229235
0.0285761
0.0332319
0.0361326
0.0346202
0.025811
0.0108137
0.0308734
0.149215
0.210299
0.249635
0.274041
0.284457
0.277139
0.242113
0.0517835
0.0137478
0.0609936
0.113527
0.153233
0.1807
0.196646
0.197282
0.169081
0.0429708
0.00429652
0.0138644
0.0422734
0.0773095
0.108654
0.13193
0.141572
0.119445
0.0334607
0.00286694
0.00808351
0.014731
0.035354
0.0644201
0.0903443
0.102545
0.0863487
0.0269322
0.00297219
0.0119728
0.0196834
0.0270387
0.0453086
0.066264
0.0766481
0.064976
0.02216
0.00295526
0.0155498
0.0236208
0.0299032
0.0394177
0.0528545
0.0602305
0.0503747
0.0185907
0.00308947
0.016325
0.0254621
0.0311042
0.0373627
0.0451638
0.0497514
0.0403158
0.0157145
0.00303816
0.017102
0.0257066
0.0314899
0.0365767
0.0409777
0.0427154
0.0335583
0.0137435
0.0030575
0.0172147
0.0257433
0.0317175
0.036578
0.0396418
0.0376724
0.0277465
0.0113251
0.0311197
0.151846
0.214592
0.255266
0.280714
0.291791
0.284446
0.247768
0.0523828
0.0140131
0.063177
0.117693
0.158622
0.186925
0.203379
0.203858
0.173946
0.0434826
0.00450559
0.0148178
0.0454709
0.0819952
0.114102
0.137678
0.146884
0.122782
0.0338955
0.0029431
0.0088652
0.0163056
0.0385976
0.0686848
0.0948649
0.10658
0.0886745
0.0273009
0.0030636
0.0121671
0.0202731
0.0284952
0.0481436
0.0695172
0.0796687
0.0666447
0.0224712
0.00300908
0.0163331
0.0245166
0.0308873
0.0411338
0.0550883
0.0624571
0.0516048
0.0188522
0.00316944
0.0169523
0.0262646
0.0320388
0.0385843
0.0467798
0.0513779
0.0412396
0.0159334
0.00311322
0.0176803
0.0265091
0.0324356
0.0376083
0.0422381
0.0439146
0.0342777
0.0139287
0.00313198
0.0178216
0.0265729
0.0326446
0.0375743
0.0407289
0.0385736
0.0282858
0.0114726
0.0307444
0.149429
0.210516
0.249837
0.274219
0.284608
0.27727
0.242218
0.0517889
0.0136559
0.0609166
0.11373
0.153453
0.180895
0.196806
0.197408
0.169178
0.042979
0.00423915
0.0129077
0.0421172
0.0775039
0.108841
0.132077
0.141682
0.119509
0.0334701
0.00276949
0.00214567
0.0145444
0.0354895
0.0645678
0.090456
0.10263
0.0863929
0.0269413
0.00305878
0.0127356
0.0197653
0.0269946
0.045375
0.066324
0.0767091
0.0650071
0.0221685
0.00293712
0.0152938
0.023549
0.0298588
0.0394142
0.0528845
0.0602728
0.0503981
0.0185985
0.00308699
0.016367
0.025472
0.0310685
0.0373462
0.0451769
0.0497804
0.0403338
0.0157215
0.00303292
0.0170097
0.0256182
0.0314433
0.0365544
0.0409822
0.0427352
0.0335734
0.01375
0.00305126
0.0171585
0.025685
0.0316713
0.0365546
0.0396407
0.0376833
0.027756
0.0113305
0.0300643
0.140584
0.195988
0.230808
0.251735
0.259813
0.252254
0.221793
0.0495078
0.0132806
0.0538164
0.100593
0.136175
0.160862
0.17509
0.175856
0.152676
0.0410192
0.00375852
0.0105042
0.0331055
0.0634087
0.0921619
0.114235
0.124801
0.107934
0.0318901
0.00265678
0.00580035
0.0121841
0.0256816
0.0522575
0.0768732
0.0900988
0.0785626
0.0256206
0.00269883
0.010226
0.0182742
0.0228594
0.0375104
0.0567863
0.0675752
0.0593635
0.0210717
0.00272999
0.0136734
0.0212194
0.0266773
0.0344374
0.046304
0.0535104
0.0462832
0.0176899
0.00282744
0.0142018
0.0223335
0.0277124
0.0335171
0.0403589
0.0447386
0.0372197
0.0149682
0.0027835
0.0150169
0.0227834
0.0283386
0.0331326
0.0370875
0.0389102
0.0311248
0.0131147
0.00280394
0.0151013
0.0228113
0.0284855
0.0331843
0.0361255
0.0346393
0.0258312
0.0108239
0.0290682
0.118316
0.160744
0.185995
0.200214
0.2039
0.194793
0.168305
0.0430757
0.0146017
0.0381833
0.0734646
0.100409
0.119666
0.130574
0.130951
0.115871
0.0357363
0.00283579
0.0052971
0.0180926
0.0385843
0.0614814
0.080686
0.0917846
0.0831294
0.0279187
0.00227228
0.00333263
0.0121062
0.0121411
0.0318288
0.0529
0.0662607
0.0616338
0.0224959
0.00211177
0.00867337
0.0132865
0.0159873
0.0258995
0.0403699
0.0502724
0.0470515
0.0185837
0.00233795
0.00924376
0.016032
0.0193042
0.0255469
0.0342984
0.0406128
0.037133
0.0156869
0.00226738
0.0101561
0.0163174
0.0210548
0.0256577
0.030921
0.0347339
0.0301459
0.0133365
0.00235474
0.0108726
0.0164537
0.0211958
0.0255172
0.028942
0.0307784
0.0254789
0.0117505
0.00233714
0.0108918
0.0166093
0.0214117
0.0255861
0.0283563
0.0276117
0.0211876
0.00973649
0.0179354
0.0317605
0.035897
0.0385023
0.0397065
0.0394589
0.0382915
0.0356622
0.0265934
0.0220298
0.00820312
0.0196547
0.0222373
0.0248399
0.0261064
0.0261874
0.0251943
0.0226012
0.00301595
0.00799517
0.00557738
0.00888297
0.0121969
0.0155885
0.0180053
0.0193203
0.0187143
0.00159865
0.00217095
0.00237386
0.00467467
0.00559261
0.00963605
0.013273
0.0157656
0.0158792
0.00153582
0.0020757
0.00273676
0.00385236
0.00457878
0.00726916
0.0106062
0.0133466
0.0136348
0.00150899
0.00237463
0.00330074
0.00367307
0.0046927
0.00635651
0.00918681
0.0116095
0.0118664
0.00158946
0.00227813
0.00301349
0.00401072
0.0047824
0.00605531
0.00829545
0.0101683
0.0103027
0.00157201
0.00242186
0.0032361
0.00391973
0.00476402
0.00586004
0.00780114
0.00925133
0.00924981
0.00157364
0.00238895
0.00318501
0.00397286
0.00476927
0.00567924
0.00704197
0.00794098
0.00776645
)
;

boundaryField
{
    inlet
    {
        type            calculated;
        value           uniform 0.000851986;
    }
    outlet
    {
        type            calculated;
        value           nonuniform List<scalar> 
81
(
0.00162095
0.0023619
0.00281969
0.0030575
0.00313198
0.00305126
0.00280394
0.00233714
0.00157364
0.00243273
0.0109969
0.0152154
0.0172147
0.0178216
0.0171585
0.0151013
0.0108918
0.00238895
0.00321625
0.0167487
0.0229235
0.0257433
0.0265729
0.025685
0.0228113
0.0166093
0.00318501
0.00399274
0.0215185
0.0285761
0.0317175
0.0326446
0.0316713
0.0284855
0.0214117
0.00397286
0.00477842
0.0256406
0.0332319
0.036578
0.0375743
0.0365546
0.0331843
0.0255861
0.00476927
0.00567977
0.0283665
0.0361326
0.0396418
0.0407289
0.0396407
0.0361255
0.0283563
0.00567924
0.00703149
0.0275885
0.0346202
0.0376724
0.0385736
0.0376833
0.0346393
0.0276117
0.00704197
0.00792455
0.0211583
0.025811
0.0277465
0.0282858
0.027756
0.0258312
0.0211876
0.00794098
0.00775342
0.00972464
0.0108137
0.0113251
0.0114726
0.0113305
0.0108239
0.00973649
0.00776645
)
;
    }
    lowerWall
    {
        type            nutkWallFunction;
        Cmu             0.09;
        kappa           0.41;
        E               9.8;
        value           nonuniform List<scalar> 
162
(
0.0016546
0.002424
0.00264954
0.00273923
0.00276451
0.00273932
0.00266128
0.00247437
0.00166253
0.00086955
0.0010582
0.00122631
0.00130663
0.00133135
0.00130523
0.00124284
0.00114661
0.00109164
0.000355948
0.000361556
0.000411579
0.000455103
0.000471011
0.000448229
0.000411716
0.000357251
0.00036511
0.000181177
0.000239391
0.00028729
0.000316239
0.000325358
0.000309075
0.000287713
0.000236713
0.000179885
0.000179883
0.000247141
0.000299398
0.000322871
0.000330233
0.000324528
0.000297848
0.000245056
0.000174758
0.000183543
0.000258266
0.000306017
0.000328651
0.000335875
0.000327672
0.000303402
0.000255136
0.000178512
0.00018614
0.000260484
0.000308083
0.000332963
0.000340534
0.000332444
0.000307306
0.00025788
0.000181014
0.000186051
0.000263512
0.000309851
0.000333399
0.000340814
0.000332764
0.000307934
0.000260886
0.000180949
0.000186304
0.000263505
0.000309918
0.000333724
0.00034113
0.000333081
0.000308293
0.00026088
0.000181079
0.00240374
0.00372369
0.00422719
0.00440571
0.00445271
0.00440647
0.00422842
0.00372367
0.00239751
0.00206714
0.00313673
0.00355745
0.00371354
0.00375423
0.00371438
0.00355896
0.00313775
0.00206553
0.00173801
0.00250215
0.00282527
0.00295375
0.00298898
0.00295463
0.00282677
0.00250363
0.00173839
0.00149525
0.00205376
0.00231279
0.00242227
0.00245265
0.00242311
0.00231433
0.00205545
0.00149639
0.00130092
0.00172494
0.00193471
0.00202718
0.00205322
0.00202796
0.00193617
0.00172665
0.00130232
0.00114602
0.00147785
0.00164932
0.0017271
0.0017493
0.00172781
0.00165066
0.0014795
0.0011475
0.00100753
0.0012746
0.00141633
0.00148179
0.00150062
0.00148243
0.00141756
0.00127612
0.00100898
0.000913197
0.00113572
0.0012556
0.0013115
0.00132761
0.00131209
0.00125675
0.00113718
0.00091467
0.000778826
0.000957038
0.00105423
0.00109959
0.00111265
0.0011001
0.00105523
0.000958316
0.000780191
)
;
    }
    upperWall
    {
        type            nutkWallFunction;
        Cmu             0.09;
        kappa           0.41;
        E               9.8;
        value           nonuniform List<scalar> 
162
(
0.0016546
0.00166253
0.00086955
0.00109164
0.000355948
0.00036511
0.000181177
0.000179885
0.000179883
0.000174758
0.000183543
0.000178512
0.00018614
0.000181014
0.000186051
0.000180949
0.000186304
0.000181079
0.00263579
0.00267974
0.0015105
0.00131026
0.000406861
0.000493187
0.00024298
0.000235772
0.000243691
0.000238574
0.000261104
0.000256501
0.000265389
0.000260796
0.000270611
0.000266042
0.000270711
0.000266029
0.00312825
0.0031371
0.00174338
0.00177837
0.000617539
0.000614274
0.000310961
0.000305327
0.000319147
0.000310932
0.000336726
0.00033788
0.000346526
0.000339943
0.000348403
0.000346673
0.000349531
0.000346238
0.00335047
0.00335778
0.00204008
0.00204962
0.00086453
0.000876039
0.00042351
0.000421441
0.000392019
0.000389387
0.000407111
0.000406186
0.000421497
0.000419253
0.00042408
0.000422102
0.000425777
0.000423747
0.00345102
0.00345688
0.00223771
0.0022487
0.00117379
0.00118122
0.000606392
0.000608817
0.000500283
0.000499705
0.000495862
0.00049484
0.000500487
0.00049952
0.000501361
0.000500397
0.000501422
0.00050053
0.00342939
0.00343548
0.00234806
0.00235468
0.0014653
0.00147127
0.000941728
0.000944965
0.000727938
0.000728857
0.000652042
0.000652416
0.000621805
0.000621734
0.000603882
0.000603833
0.000586812
0.000586808
0.00334505
0.00334398
0.00235486
0.0023607
0.00167275
0.00167758
0.00126666
0.00127026
0.00103402
0.00103646
0.00090765
0.000909222
0.000827302
0.000828363
0.000782403
0.000783312
0.000712793
0.000713626
0.00311226
0.00312684
0.0022765
0.00227941
0.0017856
0.00178887
0.00148353
0.00148619
0.00127483
0.00127699
0.00112289
0.00112472
0.000995308
0.000996882
0.000913276
0.000914742
0.000794738
0.000796054
0.00240374
0.00239751
0.00206714
0.00206553
0.00173801
0.00173839
0.00149525
0.00149639
0.00130092
0.00130232
0.00114602
0.0011475
0.00100753
0.00100898
0.000913197
0.00091467
0.000778826
0.000780191
)
;
    }
}


// ************************************************************************* //
