/*--------------------------------*- C++ -*----------------------------------*\
  =========                 |
  \\      /  F ield         | OpenFOAM: The Open Source CFD Toolbox
   \\    /   O peration     | Website:  https://openfoam.org
    \\  /    A nd           | Version:  11
     \\/     M anipulation  |
\*---------------------------------------------------------------------------*/
FoamFile
{
    format      ascii;
    class       volScalarField;
    location    "200";
    object      p;
}
// * * * * * * * * * * * * * * * * * * * * * * * * * * * * * * * * * * * * * //

dimensions      [0 2 -2 0 0 0 0];

internalField   nonuniform List<scalar> 
729
(
2.92218
3.53434
3.10878
2.11218
1.12813
0.254228
-0.413263
-1.32339
2.35097
0.303507
0.216294
0.222121
0.0785372
-0.0995417
-0.189825
-0.0716041
0.183193
1.38878
0.192739
0.209397
0.228608
0.154103
0.000883635
-0.12284
-0.0908371
0.0729818
0.422509
0.14177
0.142079
0.10919
0.0176165
-0.120858
-0.232582
-0.239136
-0.190757
-0.0408362
0.105438
0.0795338
0.0157932
-0.0820006
-0.198122
-0.282015
-0.29458
-0.257708
-0.149739
0.0599242
0.0219157
-0.0447624
-0.134159
-0.22592
-0.281023
-0.287496
-0.232138
-0.148565
0.0279239
-0.0069861
-0.0612403
-0.130756
-0.19614
-0.230292
-0.232764
-0.179563
-0.129353
0.00715599
-0.0135211
-0.0444247
-0.0837756
-0.120137
-0.143052
-0.144919
-0.102035
-0.0784372
-0.0036994
-0.00703348
-0.0117376
-0.0179643
-0.0241656
-0.0368295
-0.0342494
-0.0306349
-0.0508923
3.67949
4.80028
4.12401
2.6077
1.23686
-0.117534
-1.76836
-4.36224
2.27671
-0.0911277
-0.168204
-0.236393
-0.305406
-0.322426
-0.264131
0.0308003
0.483737
3.09233
0.189378
0.206627
0.205298
0.129982
0.0143755
-0.0714117
-0.00563219
0.194727
1.18989
0.112953
0.10545
0.0672566
-0.0239128
-0.146452
-0.239029
-0.257125
-0.346153
-0.0849586
0.0799792
0.0374099
-0.0299856
-0.120944
-0.222813
-0.297007
-0.324626
-0.43599
-0.318078
0.0329757
-0.01817
-0.082674
-0.161499
-0.23724
-0.28803
-0.306816
-0.374219
-0.257283
0.00756672
-0.0361468
-0.0862184
-0.145831
-0.199392
-0.232873
-0.246657
-0.292599
-0.206521
-0.00403749
-0.0289328
-0.0570893
-0.0907288
-0.121957
-0.143302
-0.152855
-0.18474
-0.133767
-0.00557983
-0.00951142
-0.0137704
-0.0195187
-0.0262948
-0.0349724
-0.0397149
-0.074296
-0.0877893
4.54592
6.21433
5.53819
3.60053
1.82237
-0.0283651
-2.76007
-6.65547
1.61481
-0.190338
-0.305311
-0.546273
-0.643518
-0.565346
-0.370644
0.117268
0.934444
4.37298
0.148218
0.160164
0.127897
0.0423067
-0.0572848
-0.101133
0.0833625
0.480046
1.94264
0.0501693
0.0465513
0.00649215
-0.0846288
-0.199079
-0.280547
-0.271436
-0.370732
-0.0157054
0.0396766
-0.000550404
-0.060202
-0.145276
-0.2433
-0.319011
-0.345607
-0.482889
-0.368614
0.00346058
-0.045465
-0.100856
-0.169943
-0.238087
-0.289763
-0.310483
-0.388807
-0.257319
-0.0116868
-0.0533746
-0.0965828
-0.148595
-0.194333
-0.225717
-0.240294
-0.293877
-0.193655
-0.0142999
-0.0381582
-0.0623867
-0.0917657
-0.11692
-0.132993
-0.140041
-0.177974
-0.12479
-0.00729984
-0.0109862
-0.0141744
-0.0192045
-0.0242141
-0.0284062
-0.0321222
-0.0705576
-0.0889224
5.02291
6.85908
6.21961
4.11344
2.13149
-0.00473787
-3.32123
-7.67494
1.10321
-0.198567
-0.412714
-0.725762
-0.814548
-0.687324
-0.430879
0.155132
1.22088
4.95788
0.106074
0.111457
0.0493962
-0.0489289
-0.137212
-0.140388
0.14687
0.713521
2.43076
0.0086633
0.00711214
-0.039777
-0.135979
-0.246158
-0.311737
-0.262878
-0.329364
0.0873924
0.0100346
-0.0287586
-0.0859489
-0.169302
-0.264871
-0.336476
-0.349923
-0.481149
-0.380874
-0.0174447
-0.0650905
-0.115684
-0.178659
-0.241929
-0.292085
-0.309771
-0.382257
-0.25923
-0.0250585
-0.0654631
-0.10464
-0.151055
-0.190888
-0.219686
-0.235193
-0.288112
-0.193184
-0.0213253
-0.0443699
-0.0661533
-0.0921071
-0.11254
-0.124431
-0.132387
-0.173709
-0.129525
-0.00867403
-0.0123427
-0.0149314
-0.0191749
-0.0227973
-0.0242204
-0.0291149
-0.0724292
-0.0973531
5.15927
7.03645
6.41572
4.26235
2.21812
-0.00744477
-3.49783
-7.95383
0.924403
-0.195724
-0.449887
-0.780631
-0.863079
-0.721749
-0.448355
0.166814
1.30756
5.11308
0.087936
0.0909264
0.0208867
-0.0792991
-0.1624
-0.151162
0.17136
0.795682
2.59629
-0.00589192
-0.00705474
-0.0560844
-0.153677
-0.261768
-0.320649
-0.255935
-0.307076
0.128718
-0.00104331
-0.039509
-0.0955917
-0.178124
-0.272685
-0.342026
-0.349506
-0.476427
-0.384484
-0.0250731
-0.0720955
-0.120981
-0.181818
-0.243515
-0.292799
-0.308734
-0.377004
-0.260459
-0.0298579
-0.0696735
-0.107404
-0.151765
-0.189584
-0.217356
-0.232717
-0.283071
-0.191837
-0.0237633
-0.046458
-0.067335
-0.0919839
-0.110743
-0.12116
-0.129026
-0.169424
-0.129056
-0.00909976
-0.012744
-0.0150752
-0.0190112
-0.0221128
-0.0225358
-0.0275038
-0.0712563
-0.0982067
5.01855
6.86047
6.21895
4.11206
2.1296
-0.00708678
-3.32492
-7.6778
1.10451
-0.198483
-0.413366
-0.730207
-0.818027
-0.688812
-0.431011
0.15625
1.22326
4.96282
0.0996826
0.104939
0.0456683
-0.0496322
-0.137108
-0.139883
0.148287
0.715768
2.43531
0.00695344
0.00559266
-0.0407514
-0.135239
-0.245025
-0.310653
-0.261629
-0.328243
0.0892702
0.00897529
-0.0301724
-0.0861069
-0.168545
-0.263877
-0.335481
-0.348906
-0.480254
-0.380115
-0.0179373
-0.0653431
-0.115505
-0.177958
-0.2411
-0.291278
-0.308996
-0.381462
-0.258672
-0.0250802
-0.0652584
-0.104261
-0.150507
-0.190311
-0.219141
-0.23468
-0.287556
-0.192834
-0.0212738
-0.0441578
-0.0658456
-0.0917449
-0.112187
-0.124116
-0.132105
-0.1734
-0.129371
-0.00870978
-0.0123108
-0.0148221
-0.0190343
-0.0226704
-0.0241076
-0.0290194
-0.0723451
-0.0973655
4.52982
6.20884
5.53405
3.59654
1.81817
-0.0327806
-2.76639
-6.66102
1.6197
-0.19557
-0.322743
-0.562248
-0.652148
-0.569461
-0.372014
0.118757
0.938708
4.38243
0.136207
0.148373
0.121349
0.0402713
-0.0575866
-0.10044
0.085503
0.483388
1.9498
0.0436122
0.0423808
0.00496675
-0.0834045
-0.196901
-0.278399
-0.269336
-0.369202
-0.0124872
0.0363102
-0.00212835
-0.0602887
-0.143731
-0.241226
-0.317043
-0.343837
-0.481552
-0.367059
0.00262897
-0.0452478
-0.100115
-0.168498
-0.236474
-0.288264
-0.309145
-0.387631
-0.256298
-0.0114935
-0.0525391
-0.0956587
-0.147499
-0.193262
-0.224762
-0.239447
-0.293088
-0.193057
-0.0140939
-0.0375366
-0.0616817
-0.0910247
-0.116251
-0.132458
-0.139604
-0.177565
-0.124528
-0.00736962
-0.0108891
-0.0139343
-0.0189005
-0.0239532
-0.0282077
-0.031979
-0.0704587
-0.0889388
3.64872
4.79076
4.12221
2.60738
1.2364
-0.119282
-1.77295
-4.36541
2.28899
-0.104288
-0.21118
-0.266299
-0.31798
-0.32785
-0.266323
0.0323761
0.489121
3.10476
0.170326
0.182365
0.192939
0.127198
0.0147833
-0.0700727
-0.00300369
0.198622
1.19755
0.102378
0.0974902
0.0644107
-0.0218045
-0.142756
-0.235651
-0.254352
-0.34414
-0.0813056
0.0750903
0.035253
-0.0300554
-0.118584
-0.219756
-0.29426
-0.322421
-0.434456
-0.316092
0.0320063
-0.0171251
-0.0813636
-0.159528
-0.235251
-0.286251
-0.305293
-0.373064
-0.256055
0.00795266
-0.0343064
-0.0846451
-0.144399
-0.198201
-0.231901
-0.245804
-0.291947
-0.205892
-0.00377298
-0.0277062
-0.0558837
-0.0897138
-0.121189
-0.14282
-0.152507
-0.184504
-0.133543
-0.00563877
-0.00925747
-0.0133152
-0.0190357
-0.0259577
-0.0348079
-0.0396336
-0.0742841
-0.0878565
2.84974
3.52383
3.12402
2.12932
1.1454
0.267301
-0.404121
-1.31335
2.37008
0.279744
0.178293
0.200022
0.0763305
-0.0977614
-0.187206
-0.0660777
0.191944
1.4018
0.180023
0.183455
0.21176
0.150446
0.00223472
-0.120085
-0.0867463
0.0782558
0.42911
0.130244
0.131172
0.103366
0.0185359
-0.117617
-0.22934
-0.236076
-0.18805
-0.0372993
0.098858
0.0757685
0.0143171
-0.0803133
-0.19548
-0.279573
-0.292415
-0.255998
-0.147346
0.0574761
0.0226267
-0.0436711
-0.132072
-0.224075
-0.279523
-0.286141
-0.231075
-0.14698
0.0274357
-0.00495674
-0.0593986
-0.128815
-0.195078
-0.229595
-0.232186
-0.179104
-0.128509
0.00696727
-0.0121638
-0.0430661
-0.0825057
-0.119615
-0.142835
-0.144866
-0.101968
-0.0780716
-0.00377638
-0.00677155
-0.0114041
-0.0176393
-0.0240333
-0.0368206
-0.0343098
-0.0306404
-0.0508872
)
;

boundaryField
{
    inlet
    {
        type            zeroGradient;
    }
    outlet
    {
        type            fixedValue;
        value           uniform 0;
    }
    lowerWall
    {
        type            zeroGradient;
    }
    upperWall
    {
        type            zeroGradient;
    }
}


// ************************************************************************* //
