/*--------------------------------*- C++ -*----------------------------------*\
  =========                 |
  \\      /  F ield         | OpenFOAM: The Open Source CFD Toolbox
   \\    /   O peration     | Website:  https://openfoam.org
    \\  /    A nd           | Version:  11
     \\/     M anipulation  |
\*---------------------------------------------------------------------------*/
FoamFile
{
    format      ascii;
    class       surfaceScalarField;
    location    "200";
    object      phi;
}
// * * * * * * * * * * * * * * * * * * * * * * * * * * * * * * * * * * * * * //

dimensions      [0 3 -1 0 0 0 0];

internalField   nonuniform List<scalar> 
1944
(
0.00823451
-0.00198088
-0.00634867
0.0119562
0.00251867
-0.00626826
0.0170143
0.000542362
-0.00562974
0.0204292
0.000775412
-0.00420042
0.0227628
0.000335217
-0.00267288
0.0240021
-0.00048987
-0.000750079
0.0232232
-0.00182122
0.00260194
0.0196523
-0.00307978
0.00665208
0.0157231
0.00393159
-0.0024855
-0.00368851
0.00414879
0.000873675
-0.00437524
0.00349285
0.00453378
-0.00518809
0.0020516
0.00802632
-0.00406179
0.00133576
0.0106322
-0.00310884
0.000834421
0.0116017
-0.0020881
0.000628165
0.00986375
-0.00083478
0.000752217
0.00339014
0.00269883
0.000697238
0.0195003
-0.000385373
-0.000574737
-0.00330052
0.000153082
0.00155134
-0.00772325
0.00120795
0.00326262
-0.00854555
0.00163784
0.00503848
-0.00758818
0.00174508
0.00617923
-0.00569248
0.00144045
0.00610673
-0.0029569
0.000940364
0.00400902
0.000995628
0.000267602
-0.000568064
0.0080496
-0.000772465
0.0210713
-0.00213826
0.000945413
-0.00523957
0.000988832
0.00173039
-0.00964555
0.0011344
0.00263119
-0.0104357
0.000987603
0.00351085
-0.00944214
0.00097256
0.00387471
-0.00695978
0.00090198
0.00330509
-0.00311745
0.000729357
0.00147817
0.00249113
0.000331332
-0.0018009
0.0118373
-0.000508105
0.0212314
-0.00196057
0.000965441
-0.00682707
0.00062171
0.0014957
-0.0108954
0.000719809
0.00199013
-0.0115595
0.000629534
0.00243621
-0.0103581
0.00046989
0.00248606
-0.00735396
0.000343805
0.00179448
-0.00277406
0.000347757
4.21565e-05
0.00396402
0.00027931
-0.00223039
0.0143734
-0.000263372
0.0205443
-0.00154326
0.000739718
-0.00804566
0.000477848
0.00101028
-0.0116716
0.000505329
0.00125146
-0.0121958
0.000395465
0.00142882
-0.0107498
0.000214574
0.00130188
-0.00724096
1.39337e-05
0.000595846
-0.00208323
1.49769e-05
-0.00104031
0.00549768
0.000102479
-0.00237875
0.0159015
-0.000189577
0.0194205
-0.00125497
0.000437289
-0.0087735
0.00028872
0.000529687
-0.0120594
0.000294859
0.00062027
-0.0124893
0.000203061
0.000641067
-0.0108245
5.4038e-05
0.000409117
-0.00687032
-0.000138649
-0.000334315
-0.0011654
-0.000174427
-0.00174041
0.00694721
-4.33867e-05
-0.00237262
0.0167121
-0.000178291
0.0180703
-0.00102241
0.000187244
-0.00912179
0.00015956
0.000175236
-0.0122017
0.000153719
0.000163487
-0.0125595
8.17297e-05
8.78367e-05
-0.0107232
-2.55218e-05
-0.00018263
-0.00643247
-0.000167338
-0.00100676
-6.33615e-05
-0.000277885
-0.00217829
0.00829981
-0.000181025
-0.00229646
0.017058
-0.000227709
0.0166451
-0.000871315
5.56118e-05
8.8999e-05
1.3313e-05
7.55529e-05
-5.54212e-05
2.09449e-05
-0.000193286
-5.40178e-05
-0.000541173
-0.000149979
-0.00147356
-0.00029456
-0.00219379
-0.000272102
-0.00191972
-0.00032021
-0.00068789
0.00492746
-0.00660207
-0.00469452
0.0112622
-0.0080896
-0.00452913
0.0155253
-0.00567768
-0.00422292
0.018514
-0.00386883
-0.00332554
0.0208901
-0.00290616
-0.0021452
0.0231229
-0.00240084
-0.000582485
0.0255623
-0.0018844
0.00204755
0.0253367
0.00214327
0.00473651
0.024457
0.0048133
0.000999877
-0.00607785
0.00263113
0.00354237
-0.00878877
0.00164619
0.00714336
-0.0079969
0.000765088
0.0103396
-0.00611652
0.000383583
0.0124175
-0.00439669
0.000245398
0.0129708
-0.00268507
0.000358521
0.0111999
-0.000161949
0.000801323
0.00663391
0.00625878
0.00114924
0.0287076
0.00199915
0.000892098
-0.00798213
0.00118329
0.00296014
-0.0114228
0.00177603
0.00480873
-0.0102058
0.00199625
0.00661894
-0.00794262
0.00175895
0.00765802
-0.00531309
0.0013165
0.00732699
-0.00223014
0.000816017
0.00506378
0.00210597
0.000263125
0.00115179
0.00984827
-0.000449168
0.0282688
-0.000547116
0.00118217
-0.00933749
0.00117015
0.00191359
-0.0121351
0.00111852
0.00286862
-0.0112255
0.00105298
0.00384407
-0.00898657
0.00104064
0.00430754
-0.00577491
0.000899752
0.00386585
-0.001675
0.000615552
0.0023041
0.00384029
0.000158719
-0.000242995
0.0123931
-0.000505685
0.027185
-0.00111968
0.00111456
-0.010518
0.000691615
0.00165805
-0.0126412
0.000684617
0.00211372
-0.0115906
0.00054043
0.00248417
-0.00930613
0.000419498
0.00248376
-0.00576636
0.000335623
0.0019471
-0.00107128
0.000280456
0.000835942
0.00514126
8.9324e-05
-0.000799561
0.0141216
-0.000356476
0.025821
-0.000978933
0.00080056
-0.0112919
0.000452261
0.00105551
-0.0127948
0.000405089
0.00128286
-0.0117
0.000278459
0.00141097
-0.00933941
0.000120276
0.00125277
-0.00556997
-2.41063e-05
0.000713682
-0.000478795
-3.85301e-05
-0.000169035
0.0061766
-5.03168e-05
-0.00119885
0.0152613
-0.000299632
0.0241953
-0.000828262
0.000470797
-0.0117276
0.000253217
0.000555197
-0.0127967
0.000212542
0.000637482
-0.0116948
0.000115935
0.000620797
-0.00924835
-1.9991e-05
0.000387695
-0.00529453
-0.000180829
-0.0001235
9.22823e-05
-0.00023435
-0.000846303
0.00703387
-0.000177981
-0.00140991
0.015934
-0.000287557
0.0224723
-0.000709528
0.000210859
-0.0119168
0.000137564
0.000208695
-0.0127463
0.000105433
0.00019141
-0.0116281
3.25038e-05
8.8177e-05
-0.0091005
-6.99245e-05
-0.000182998
-0.00497874
-0.00021186
-0.000695143
0.000654804
-0.000328295
-0.00130946
0.00775006
-0.000282976
-0.00150362
0.016206
-0.000305675
0.0207123
-0.000615016
7.28254e-05
8.76118e-05
5.06561e-05
6.14963e-05
-2.15893e-05
2.08413e-06
-0.00018006
-7.74664e-05
-0.000487996
-0.000180721
-0.00100434
-0.000301593
-0.00143995
-0.000309984
-0.00131598
-0.000310377
-0.000479065
0.00449133
-0.00654224
-0.00260693
0.0116981
-0.00919409
-0.00253851
0.0158748
-0.00601111
-0.00239074
0.0185892
-0.0041135
-0.00192872
0.020837
-0.00314614
-0.00124813
0.023226
-0.00266801
-0.000303989
0.0261726
-0.00207747
0.00117896
0.0250386
0.00324077
0.00263115
0.0266565
0.00319643
0.00323663
-0.00850532
0.00138068
0.00497012
-0.0101018
0.000824485
0.0081268
-0.00868018
0.000277186
0.0109208
-0.00658014
5.51459e-05
0.0126614
-0.00467482
3.26403e-05
0.0128893
-0.00271974
0.000182097
0.0107552
0.000320644
0.00053762
0.00608343
0.00811074
0.00095198
0.0326027
0.00213702
0.00142486
-0.00985392
0.00111934
0.00358244
-0.0118335
0.00135484
0.00546715
-0.0098409
0.00127343
0.00708188
-0.00745872
0.00102257
0.00785378
-0.00486037
0.000729711
0.00718978
-0.00168608
0.000446169
0.004539
0.00306557
0.000169138
0.000378658
0.0119033
-8.09414e-05
0.0320219
0.000412582
0.00109553
-0.0105258
0.000755264
0.00183827
-0.0121877
0.000734087
0.00289997
-0.0105884
0.000740735
0.00391565
-0.00815052
0.000717227
0.0043094
-0.00493357
0.000579109
0.0036941
-0.000811077
0.000355716
0.00190058
0.00496092
5.68623e-05
-0.000758874
0.0143176
-0.00026046
0.0303585
-0.000215153
0.00106028
-0.0113672
0.00047748
0.00158647
-0.0124725
0.000446126
0.00205512
-0.0108778
0.00036284
0.00240396
-0.00837658
0.000297436
0.00235095
-0.00478383
0.000239038
0.00172628
-6.47669e-05
0.000158744
0.000504284
0.00627703
-4.89858e-06
-0.00108513
0.0157856
-0.000235247
0.02856
-0.000265666
0.000761717
-0.0119734
0.000298593
0.00100256
-0.0125631
0.000256108
0.00123243
-0.0110005
0.00017228
0.00132702
-0.00841898
6.8645e-05
0.00110716
-0.00456958
-1.82905e-05
0.000495214
0.000555719
-4.70939e-05
-0.000439032
0.00725386
-9.30349e-05
-0.00140122
0.0166808
-0.000232867
0.0265864
-0.000256005
0.000450124
-0.0123394
0.000169677
0.000530474
-0.0125636
0.000133066
0.000601804
-0.011019
6.35301e-05
0.000545677
-0.00834903
-3.34543e-05
0.000255575
-0.00431911
-0.000141032
-0.000308631
0.00107145
-0.000185893
-0.00104981
0.00799514
-0.000178197
-0.00155976
0.017148
-0.000244913
0.0245714
-0.000254333
0.000202234
-0.0124978
9.33547e-05
0.00019736
-0.0125176
6.43304e-05
0.0001699
-0.0109684
9.55714e-06
2.91945e-05
-0.00821053
-6.7584e-05
-0.000292509
-0.00403975
-0.000169465
-0.000830407
0.00152932
-0.000248293
-0.00144125
0.00856688
-0.00024395
-0.0015922
0.0172558
-0.00026268
0.0226106
-0.000246556
7.02064e-05
6.39477e-05
4.73242e-05
3.75402e-05
-3.55192e-05
-8.81648e-06
-0.000221887
-7.0522e-05
-0.000558345
-0.000149305
-0.0010555
-0.000228978
-0.00149078
-0.000249597
-0.00134882
-0.000250283
-0.000211705
0.00446089
-0.00630739
-0.000760638
0.0120099
-0.0093175
-0.000769046
0.0161959
-0.00584689
-0.000729876
0.0188228
-0.00396321
-0.00059315
0.021029
-0.00307761
-0.000377479
0.0234855
-0.00269134
-6.94823e-05
0.0263931
-0.00213092
0.000402393
0.024625
0.00354261
0.000857095
0.0267308
0.00109114
0.00408894
-0.0094607
0.000455443
0.00559695
-0.0102984
0.000299344
0.00859293
-0.0086732
0.000107877
0.011202
-0.00654163
2.41075e-05
0.0127567
-0.00461698
1.69597e-05
0.0127728
-0.00259892
7.32354e-05
0.0103404
0.000638549
0.000200641
0.00547302
0.00899196
0.000370374
0.0334813
0.000859832
0.00164509
-0.0104313
0.000457541
0.00398533
-0.0117992
0.000519084
0.005845
-0.00970359
0.00044527
0.00729314
-0.00730581
0.000338786
0.00784178
-0.00467305
0.000236989
0.00690602
-0.00136433
0.000147197
0.00393623
0.0037101
6.74192e-05
-0.000444023
0.0132694
2.2054e-05
0.0331692
0.000280771
0.0010545
-0.0109727
0.000248782
0.00187713
-0.0121507
0.000266274
0.00298575
-0.0103365
0.000266488
0.00395344
-0.00780178
0.00024594
0.00420703
-0.0045392
0.000191705
0.00338021
-0.000295052
0.000113187
0.00132856
0.00580196
1.66423e-05
-0.0014784
0.0158812
-6.52005e-05
0.0314406
3.51509e-05
0.00102727
-0.0116904
0.000170715
0.00154186
-0.0123722
0.000154758
0.00199619
-0.0105516
0.000124572
0.00230031
-0.0079076
9.96126e-05
0.00216384
-0.00424033
7.67753e-05
0.00139888
0.000584174
4.44565e-05
-4.75699e-06
0.00721203
-1.13636e-05
-0.00162693
0.0173395
-7.14565e-05
0.0295569
-9.02428e-06
0.000733263
-0.0122323
0.000108402
0.000958698
-0.0124288
8.7926e-05
0.00116624
-0.0106404
5.41387e-05
0.00121028
-0.00789752
1.48719e-05
0.000909448
-0.0039421
-1.55502e-05
0.000186658
0.00128739
-2.75122e-05
-0.000877351
0.00822745
-4.44823e-05
-0.0018285
0.0181374
-7.96953e-05
0.0274961
-2.37259e-05
0.000430536
-0.0125594
6.6038e-05
0.00049717
-0.012408
4.56991e-05
0.000544985
-0.0106405
1.59223e-05
0.000443062
-0.00780679
-2.20758e-05
8.31804e-05
-0.00366229
-6.086e-05
-0.000570863
0.00183264
-7.70826e-05
-0.00140742
0.00896143
-7.56679e-05
-0.00190254
0.0184769
-8.93294e-05
0.025377
-3.78679e-05
0.000190076
-0.0126963
3.9901e-05
0.000175254
-0.0123509
2.19902e-05
0.000128053
-0.0105809
-2.78847e-06
-5.18697e-05
-0.00766044
-3.39271e-05
-0.000434096
-0.00337809
-7.13814e-05
-0.00103808
0.00228696
-9.86184e-05
-0.00171663
0.00949441
-9.83983e-05
-0.00185562
0.0184503
-9.71562e-05
0.0233198
-4.49192e-05
6.36819e-05
3.28175e-05
3.23926e-05
1.44279e-05
-6.65266e-05
-7.95725e-06
-0.000283003
-3.36576e-05
-0.000664712
-6.34185e-05
-0.00119863
-9.11923e-05
-0.00167777
-9.81296e-05
-0.0015386
-9.00058e-05
-4.0725e-05
0.00445588
-0.00621131
0.00102853
0.0121214
-0.00936224
0.000927321
0.0163139
-0.00579006
0.00086674
0.0189189
-0.0039011
0.000702589
0.0211145
-0.00304078
0.000467532
0.0235841
-0.00268532
0.000146186
0.026453
-0.00213244
-0.000334058
0.0244768
0.00363232
-0.000798769
0.0266254
-0.00105735
0.0043312
-0.00976326
-0.000320552
0.00577523
-0.0103597
-0.000146523
0.00873157
-0.00865997
2.05663e-05
0.0112885
-0.00650539
7.11412e-05
0.0127844
-0.00457601
5.6035e-05
0.0127289
-0.00254278
-1.37787e-05
0.0101957
0.000751157
-0.000149749
0.00525799
0.00926581
-0.000325287
0.033564
-0.000820694
0.00172991
-0.010601
-0.000431966
0.00412233
-0.0118085
-0.000424017
0.00596041
-0.00968385
-0.000369621
0.00734967
-0.00726432
-0.000291862
0.00782031
-0.00460762
-0.000202099
0.00678764
-0.00124669
-0.000116264
0.00370445
0.00393951
-3.77221e-05
-0.00075164
0.0137365
7.49192e-06
0.0333446
-0.000251384
0.00104888
-0.0111139
-0.000283031
0.00189893
-0.0121424
-0.000249737
0.00301589
-0.0102702
-0.000264471
0.00395655
-0.00770011
-0.000258968
0.00415284
-0.0044111
-0.000201119
0.00324295
-0.000110833
-0.000112765
0.00109219
0.00611308
-6.14229e-06
-0.00176123
0.0164406
8.4177e-05
0.0316307
-1.21573e-05
0.00101624
-0.0117895
-0.000168624
0.00152266
-0.0123348
-0.000159187
0.00196835
-0.0104489
-0.000142579
0.00225307
-0.00775503
-0.000130162
0.0020799
-0.00405538
-0.000105744
0.00125503
0.000820414
-6.18901e-05
-0.000221862
0.00757006
8.56826e-06
-0.00184903
0.0179141
8.21705e-05
0.0297451
2.7497e-05
0.000720455
-0.0123085
-9.3177e-05
0.00094008
-0.0123771
-8.96355e-05
0.00113602
-0.0105191
-7.16873e-05
0.00115808
-0.00771852
-4.36898e-05
0.000821866
-0.00371912
-1.55487e-05
5.03245e-05
0.00156069
3.78839e-06
-0.00106944
0.00861087
3.44774e-05
-0.00200946
0.0186901
8.43147e-05
0.0276737
3.82081e-05
0.000421708
-0.0126202
-4.44477e-05
0.000482391
-0.0123468
-4.55367e-05
0.000519707
-0.0105092
-3.1395e-05
0.000397896
-0.00761626
-2.51966e-06
6.3168e-06
-0.00342189
3.35272e-05
-0.000689993
0.00212614
5.37939e-05
-0.0015716
0.00935373
6.30694e-05
-0.00205395
0.0189929
9.02395e-05
0.0255326
4.92095e-05
0.00018455
-0.0127497
-1.56865e-05
0.00016542
-0.0122854
-2.06355e-05
0.000109385
-0.010445
-1.11063e-05
-8.78826e-05
-0.00746525
1.22954e-05
-0.000497918
-0.00313136
4.81237e-05
-0.00113715
0.00258835
7.84047e-05
-0.00185174
0.00988389
8.60326e-05
-0.00197935
0.018927
9.6304e-05
0.0234543
5.40781e-05
5.98512e-05
3.59272e-07
2.49305e-05
-8.00445e-06
-8.1254e-05
-2.1899e-06
-0.000311365
1.54717e-05
-0.00071496
4.39808e-05
-0.00127377
7.4334e-05
-0.00177962
8.74618e-05
-0.00163607
8.86693e-05
4.80665e-05
0.00439928
-0.00641386
0.00308536
0.0119997
-0.00941438
0.00275456
0.0161875
-0.00586163
0.00253817
0.0188158
-0.00396247
0.00203527
0.0210232
-0.00307275
0.00133191
0.0234812
-0.0026863
0.000373944
0.0263899
-0.00212579
-0.00111726
0.0246201
0.0035514
-0.0025805
0.0267386
-0.00317609
0.00414504
-0.00953125
-0.00134942
0.00559713
-0.0103699
-0.000645868
0.00858003
-0.00869599
-0.000128991
0.0111887
-0.0065426
4.19015e-05
0.0127466
-0.00461217
3.75167e-05
0.0127647
-0.0025922
-0.000126101
0.0103323
0.00064773
-0.000490932
0.00546551
0.00900711
-0.000914197
0.0334961
-0.00211271
0.00167175
-0.0103865
-0.00125946
0.00399362
-0.0118009
-0.00132308
0.00583768
-0.00970535
-0.00120596
0.00728159
-0.00730078
-0.000977803
0.00783111
-0.004667
-0.000696782
0.00689637
-0.00135607
-0.000417657
0.00392647
0.0037219
-0.000142024
-0.000453592
0.0132888
0.000105836
0.0331847
-0.000393656
0.00104369
-0.010919
-0.000796295
0.00187695
-0.0121268
-0.000761402
0.00298589
-0.0103241
-0.000757456
0.0039486
-0.00778958
-0.000733843
0.00420052
-0.00452908
-0.000591192
0.00337294
-0.000283969
-0.000357343
0.00131998
0.00581663
-4.7909e-05
-0.00148745
0.015904
0.000276414
0.0314553
0.00022983
0.00103278
-0.0116564
-0.000466471
0.00154431
-0.0123463
-0.000453577
0.00199534
-0.010537
-0.00038217
0.00229808
-0.00789539
-0.000327873
0.00216039
-0.00422929
-0.000268055
0.00139373
0.000597194
-0.000176452
-1.19947e-05
0.00722923
1.68292e-06
-0.0016342
0.0173645
0.000243966
0.0295714
0.000277122
0.000732091
-0.0122011
-0.000282324
0.00096076
-0.0124037
-0.000262166
0.00116763
-0.0106248
-0.000191635
0.00121134
-0.00788659
-9.65709e-05
0.000908483
-0.00393131
-1.08158e-05
0.000183169
0.00130139
2.48822e-05
-0.000883242
0.00824644
8.36885e-05
-0.0018342
0.0181633
0.000236488
0.0275105
0.000264957
0.00043181
-0.0125308
-0.000148106
0.0005001
-0.0123838
-0.000134679
0.000547945
-0.0106251
-7.95206e-05
0.00044553
-0.00779681
9.85545e-06
8.36455e-05
-0.00365205
0.000116051
-0.00057311
0.00184694
0.000164981
-0.00141208
0.00898144
0.00016704
-0.00190705
0.0185029
0.000245544
0.0253913
0.000261282
0.000191654
-0.0126705
-6.869e-05
0.00017832
-0.0123284
-6.32797e-05
0.000131492
-0.010566
-2.36305e-05
-4.8916e-05
-0.00765084
4.65758e-05
-0.00043289
-0.00336799
0.000148001
-0.00103956
0.00230159
0.000230443
-0.00172037
0.00951493
0.000233373
-0.0018593
0.0184762
0.000261947
0.023334
0.000252149
6.49946e-05
-3.04546e-05
3.48556e-05
-3.11357e-05
-6.365e-05
-1.44775e-06
-0.000280532
5.26232e-05
-0.000663626
0.000130989
-0.0011998
0.000213938
-0.00168076
0.000240547
-0.00154162
0.0002491
0.000216263
0.0042246
-0.00629459
0.00518555
0.0116515
-0.00949303
0.0048471
0.0158575
-0.00601553
0.00436301
0.0185801
-0.00410267
0.00341355
0.0208308
-0.00313102
0.00221083
0.0232233
-0.00265576
0.000635456
0.0261705
-0.00206574
-0.00199977
0.0250357
0.00325798
-0.00470465
0.0266737
-0.0048151
0.00359416
-0.00821746
-0.00298419
0.0049166
-0.0101663
-0.00128674
0.00807457
-0.00871745
-0.000580535
0.010885
-0.00658296
-0.000283963
0.0126404
-0.00466475
-0.000183153
0.0128749
-0.00270621
-0.000310031
0.0107427
0.000338571
-0.000763192
0.00607443
0.00813676
-0.00112508
0.0326324
-0.00199765
0.00165306
-0.00964628
-0.00153444
0.00361267
-0.0116924
-0.00177225
0.00543287
-0.00983146
-0.00191071
0.00704836
-0.00745194
-0.0017209
0.00783055
-0.00485165
-0.00129
0.00717236
-0.00167137
-0.000793424
0.004524
0.00308682
-0.000241597
0.000365999
0.0119353
0.000465234
0.032055
0.00054956
0.00113341
-0.0103672
-0.00124642
0.00186666
-0.0120656
-0.00113376
0.00289587
-0.0105524
-0.00106793
0.00390381
-0.00813197
-0.00106152
0.00429755
-0.00491914
-0.000916729
0.00368286
-0.000792159
-0.000621404
0.00188837
0.00498653
-0.000152901
-0.000771703
0.014356
0.000515821
0.0303905
0.00112259
0.00105635
-0.0112153
-0.000679446
0.00159823
-0.0123796
-0.000684977
0.00205922
-0.0108411
-0.000556956
0.00240336
-0.00835774
-0.000447127
0.00234724
-0.00476826
-0.000363018
0.00171975
-4.31227e-05
-0.000297858
0.000494504
0.00630651
-9.29232e-05
-0.00109555
0.015828
0.000362087
0.0285906
0.000981397
0.000763876
-0.0118278
-0.000434807
0.00101213
-0.0124828
-0.000408445
0.0012394
-0.0109651
-0.000295826
0.00133244
-0.00840254
-0.000145382
0.00110842
-0.00455462
-5.76241e-07
0.000491809
0.000578408
1.99718e-05
-0.000446552
0.00728593
4.26593e-05
-0.00140902
0.0167248
0.000302147
0.0266165
0.00083001
0.000455009
-0.0122003
-0.000231521
0.000540241
-0.0124892
-0.000214309
0.000610697
-0.0109848
-0.000130874
0.000552987
-0.00833389
-1.39839e-06
0.000258977
-0.00430509
0.000160402
-0.000310088
0.00109416
0.000218287
-0.00105538
0.00802848
0.000169781
-0.00156568
0.0171923
0.000288321
0.0246013
0.000710837
0.000206878
-0.0123645
-0.000112239
0.000206125
-0.0124483
-0.000103933
0.00017891
-0.0109353
-4.62245e-05
3.68245e-05
-0.00819583
5.04119e-05
-0.000288152
-0.00402594
0.000193776
-0.000830841
0.00155237
0.000314929
-0.00144555
0.00860076
0.000275812
-0.00159695
0.0173
0.000305704
0.0226404
0.000616127
7.51227e-05
-5.57106e-05
5.44329e-05
-5.47552e-05
-2.8068e-05
-1.20294e-05
-0.000215576
6.04277e-05
-0.000554581
0.000164532
-0.00105586
0.000289851
-0.00149428
0.000303937
-0.00135272
0.000309873
0.000480249
0.00381323
-0.00453492
0.00617606
0.0111902
-0.00897169
0.0065254
0.015527
-0.00558522
0.00562268
0.0185294
-0.0038376
0.00425557
0.020907
-0.00286992
0.00270133
0.0231409
-0.00237697
0.0007762
0.0255741
-0.00186058
-0.00257468
0.0253461
0.00217231
-0.00665112
0.024478
-0.00394904
0.00196065
-0.00464438
-0.00484017
0.00313046
-0.00920825
-0.00222144
0.00698008
-0.00810028
-0.00189555
0.0102657
-0.00614135
-0.00125425
0.0123852
-0.00438331
-0.000783943
0.0129555
-0.00266445
-0.000591356
0.0111921
-0.000132853
-0.000727678
0.00663265
0.00629382
-0.000688247
0.0287412
0.000370933
0.00173907
-0.00741842
-0.000649086
0.00293917
-0.0111833
-0.00101797
0.00473573
-0.0101854
-0.00161159
0.00655306
-0.0079445
-0.00172505
0.00762174
-0.0053059
-0.00143043
0.0073058
-0.00221053
-0.000928927
0.00505161
0.00213537
-0.00025483
0.00114577
0.009886
0.000778805
0.0283057
0.00213054
0.00132149
-0.00890837
-0.00112939
0.00196546
-0.0119072
-0.00106678
0.00287015
-0.0111632
-0.000997433
0.00383154
-0.00897936
-0.000986294
0.00429616
-0.00576831
-0.000917061
0.00385664
-0.00165409
-0.000736989
0.00229612
0.00387208
-0.000328387
-0.000249494
0.012435
0.000512454
0.0272226
0.00195612
0.0011259
-0.0100994
-0.000626899
0.00167992
-0.012443
-0.000710445
0.00213026
-0.0115326
-0.000641479
0.00249327
-0.00930185
-0.000489042
0.00248588
-0.00576213
-0.000361682
0.0019449
-0.00105007
-0.000360512
0.000830869
0.00517536
-0.000281888
-0.00080447
0.0141666
0.000265918
0.0258596
0.00153987
0.000812767
-0.0108843
-0.000464961
0.0010771
-0.0126142
-0.000503795
0.00130124
-0.0116477
-0.000406745
0.00142566
-0.00933656
-0.000235969
0.00126033
-0.00556625
-3.14771e-05
0.000714842
-0.000457653
-2.69703e-05
-0.000171848
0.00621188
-0.000107144
-0.001202
0.015308
0.000190827
0.0242354
0.00125225
0.000483605
-0.0113283
-0.000272199
0.000578569
-0.0126292
-0.000295264
0.000657251
-0.0116441
-0.000213941
0.000636049
-0.00924369
-7.36441e-05
0.000396737
-0.00529064
0.000123821
-0.000120808
0.000112768
0.000165281
-0.000847551
0.00706921
3.91392e-05
-0.00141195
0.0159818
0.000178974
0.0225137
0.00102049
0.000222876
-0.0115236
-0.000140517
0.000228417
-0.0125882
-0.000150971
0.0002102
-0.0115776
-9.49764e-05
0.000102999
-0.00909442
8.06462e-06
-0.000173242
-0.00497511
0.000154372
-0.000691806
0.000675527
0.000270682
-0.00131008
0.00778539
0.000177937
-0.00150531
0.0162545
0.000228219
0.0207545
0.000870089
8.44879e-05
-6.62556e-05
6.68727e-05
-6.93324e-05
-6.0559e-06
-2.91652e-05
-0.000167705
3.96176e-05
-0.000479584
0.000137647
-0.00100183
0.000287461
-0.00144089
0.000269555
-0.00131763
0.00032037
0.000687818
0.0032934
0.00298743
0.0127205
-0.00288565
0.0171213
0.00124168
0.0206329
0.000751273
0.0228874
0.000448848
0.024106
-0.000442978
0.0232845
-0.00175471
0.0196799
-0.00304864
0.01573
-0.00148679
-0.000441872
-0.000508723
-0.00608068
0.00416884
-0.00531216
0.00783867
-0.00415995
0.010591
-0.00308149
0.0116036
-0.00204492
0.00989661
-0.000775413
0.0034235
0.00273528
0.0195241
0.00120067
-0.0023628
0.00157669
-0.00747721
0.00321739
-0.00855606
0.00493968
-0.00759978
0.00613003
-0.00569794
0.00608519
-0.00292686
0.00401468
0.00104102
-0.000550435
0.00807897
0.0211042
0.00112367
-0.00464702
0.00187517
-0.00930371
0.0026569
-0.0103362
0.00350767
-0.00943574
0.00386442
-0.00697013
0.00330023
-0.00309839
0.00148642
0.00252698
-0.00178791
0.0118658
0.0212724
0.000977971
-0.00626228
0.00154805
-0.0105888
0.0020241
-0.011456
0.00245789
-0.010359
0.00249728
-0.00737098
0.00179993
-0.00276109
5.20815e-05
0.0039932
-0.00222066
0.0144045
0.0205916
0.000755052
-0.00748493
0.00105244
-0.0113919
0.00128521
-0.0120966
0.00145536
-0.0107657
0.00131969
-0.00726694
0.00060561
-0.00207398
-0.00103
0.00552165
-0.00237151
0.0159368
0.0194723
0.000457091
-0.00821508
0.000572094
-0.0118028
0.000653486
-0.0123925
0.00066834
-0.0108545
0.00042764
-0.0069026
-0.000323568
-0.00115757
-0.00173134
0.00696857
-0.00236763
0.016752
0.0181252
0.000209917
-0.00856583
0.000216134
-0.0119603
0.000196349
-0.0124679
0.000114344
-0.0107646
-0.000164336
-0.00646961
-0.000996291
-5.49022e-05
-0.00217126
0.00832147
-0.00229379
0.0171028
0.0167015
8.01653e-05
4.96156e-05
-2.48676e-05
-0.000172481
-0.000525544
-0.0014666
-0.00219033
-0.0019189
)
;

boundaryField
{
    inlet
    {
        type            calculated;
        value           uniform 0;
    }
    outlet
    {
        type            calculated;
        value           nonuniform List<scalar> 
81
(
-0.00926645
-0.0119882
-0.0125443
-0.0127288
-0.0127771
-0.0127047
-0.0124144
-0.0115975
-0.00871226
-0.012235
-0.0127101
-0.0124707
-0.0122965
-0.012228
-0.0122752
-0.012404
-0.012556
-0.0119991
-0.0125117
-0.011537
-0.0108747
-0.0104828
-0.0103446
-0.0104683
-0.0108423
-0.0114875
-0.0124226
-0.0105313
-0.00891857
-0.0080311
-0.00748082
-0.00728427
-0.00747112
-0.00801614
-0.00891197
-0.0105774
-0.00593461
-0.00464006
-0.00373471
-0.00308226
-0.00283517
-0.00307191
-0.00372048
-0.00463635
-0.00597889
0.0011636
0.00117816
0.00195385
0.00268309
0.00298163
0.00269817
0.00197774
0.00120018
0.00117362
0.00929216
0.00822352
0.00894174
0.00982207
0.0102041
0.00984282
0.00897581
0.00825884
0.00931476
0.0171041
0.0160722
0.0170537
0.0181509
0.0186048
0.0181767
0.0170977
0.0161207
0.0171518
0.0154133
0.0191875
0.0209944
0.0216102
0.0217294
0.0216242
0.0210237
0.0192293
0.0154704
)
;
    }
    lowerWall
    {
        type            calculated;
        value           uniform 0;
    }
    upperWall
    {
        type            calculated;
        value           uniform 0;
    }
}


// ************************************************************************* //
