/*--------------------------------*- C++ -*----------------------------------*\
  =========                 |
  \\      /  F ield         | OpenFOAM: The Open Source CFD Toolbox
   \\    /   O peration     | Website:  https://openfoam.org
    \\  /    A nd           | Version:  11
     \\/     M anipulation  |
\*---------------------------------------------------------------------------*/
FoamFile
{
    format      ascii;
    class       volScalarField::Internal;
    location    "200";
    object      tmp<kEpsilon:G>;
}
// * * * * * * * * * * * * * * * * * * * * * * * * * * * * * * * * * * * * * //

dimensions      [0 2 -3 0 0 0 0];

value           nonuniform List<scalar> 
729
(
4.28218
8.16963
10.7477
12.7212
14.7118
15.2934
15.1822
9.36321
10.5025
0.374305
0.748168
0.794967
1.57741
2.58047
3.38648
3.48708
1.89942
3.97506
0.0112206
0.0750438
0.139021
0.301568
0.549279
0.79555
0.84525
0.902665
3.24674
0.0061338
0.0213498
0.0461486
0.0677839
0.136574
0.213382
0.284401
1.16475
2.49819
0.00885025
0.028577
0.0513051
0.0690548
0.0924085
0.0971855
0.186219
1.1072
1.822
0.0113335
0.0337023
0.0628506
0.0829326
0.0854603
0.0549456
0.190626
0.9695
1.3235
0.012812
0.0378852
0.0660793
0.0864171
0.0819664
0.030234
0.209856
0.807903
0.942826
0.013638
0.0391517
0.0690325
0.0888659
0.0763935
0.0137334
0.228741
0.700359
0.715922
0.0139836
0.0397366
0.0689611
0.0876978
0.070704
0.0215978
0.226387
0.524393
0.456242
13.0584
859.91
1097.75
1249.5
1319.85
1303.45
1133.64
893.089
35.0283
0.602926
5.28787
4.73886
5.52898
6.0037
6.80666
7.42266
3.45321
14.9687
0.0498698
0.468767
0.994891
1.17171
0.646812
0.159618
2.37118
12.7348
9.28762
0.0205934
0.0805903
0.0178925
0.0576216
0.0450212
0.245612
2.20669
9.15829
6.23561
0.0287505
0.03049
0.0217118
0.0738987
0.175624
0.60878
2.19371
5.42606
4.13046
0.0318374
0.0144928
0.0217443
0.10855
0.311935
0.812679
2.07106
3.19873
2.78562
0.035227
0.00493248
0.0317508
0.160084
0.425378
0.944148
1.92422
1.94052
1.89713
0.0363
0.00106741
0.0465403
0.21447
0.533163
1.03898
1.78788
1.27173
1.39332
0.0368115
0.000494288
0.0638536
0.269174
0.650088
1.14285
1.53278
0.682513
0.869642
15.3329
1007.7
1299.61
1531.18
1655.92
1656.09
1430.36
1094.81
47.6275
0.641895
7.75399
5.84759
6.2591
6.71228
8.07124
8.75694
5.30732
21.5207
0.0910634
0.689284
1.23196
1.25294
0.553739
0.350823
4.69355
20.0365
13.4233
0.0356618
0.0144241
0.0282892
0.069362
0.0596897
0.4878
3.85653
14.3009
8.98167
0.0450753
0.0121631
0.054461
0.0970308
0.238298
0.868766
3.32617
8.29514
5.85121
0.0487036
0.00350388
0.0493085
0.150808
0.403571
1.09924
2.93469
4.75116
3.86125
0.0520956
0.00195557
0.0650524
0.213936
0.54696
1.23118
2.61955
2.85191
2.58756
0.0533313
0.00447224
0.0842302
0.283413
0.675473
1.33298
2.37596
1.87715
1.87448
0.053822
0.0090977
0.108821
0.35354
0.806573
1.43675
2.00794
1.04061
1.16328
16.4446
1056.79
1374.06
1645.13
1799.66
1809.8
1559.64
1173.91
52.1224
0.663133
8.28531
5.69749
6.3552
7.28663
9.43325
10.5564
5.53728
23.7311
0.118366
0.941402
1.51222
1.32976
0.486299
0.537412
6.56569
23.6239
15.089
0.0449822
0.0173833
0.0433159
0.0867524
0.0756484
0.737475
5.33117
16.4343
10.2489
0.05385
0.0132796
0.064221
0.108143
0.296015
1.14036
4.37481
9.31931
6.69915
0.0587598
0.0046257
0.0650737
0.178373
0.485653
1.36592
3.70321
5.20223
4.40509
0.0615528
0.00616959
0.0871866
0.25577
0.63938
1.47519
3.19692
3.05905
2.93949
0.0633881
0.0116975
0.110669
0.333343
0.7748
1.55803
2.81924
1.99541
2.11929
0.0636455
0.0189232
0.13932
0.411864
0.91091
1.63735
2.31189
1.08016
1.30904
16.9385
1066.75
1393.63
1677.09
1841.05
1854.21
1597.04
1196.04
53.3011
0.67683
8.41027
5.56554
6.32144
7.47635
9.96012
11.2813
5.45861
24.2068
0.127327
1.03726
1.60909
1.35101
0.46008
0.61867
7.28095
24.5075
15.4758
0.0486188
0.017797
0.0491928
0.0931155
0.0837913
0.84134
5.89731
16.8703
10.5792
0.0566979
0.0145161
0.06692
0.113687
0.321909
1.25475
4.77886
9.45772
6.93217
0.0621053
0.00580308
0.0718969
0.189837
0.520021
1.47605
3.99247
5.21139
4.55694
0.0647771
0.00844755
0.095277
0.271269
0.675728
1.57413
3.40559
3.02879
3.03794
0.0666091
0.0149857
0.120477
0.3522
0.81234
1.64649
2.97248
1.96126
2.1874
0.0668571
0.0230324
0.15024
0.432988
0.949679
1.71349
2.40958
1.04428
1.34955
16.5246
1058.47
1374.35
1646.4
1801.1
1811.05
1560.57
1174.51
52.1483
0.660737
8.28794
5.64318
6.3582
7.30224
9.44692
10.5616
5.53918
23.7513
0.114635
0.868514
1.50074
1.32639
0.487187
0.538768
6.58031
23.6477
15.1051
0.0429038
0.00566226
0.0410256
0.087349
0.076849
0.74247
5.34944
16.4493
10.2613
0.0534336
0.0140243
0.0624904
0.108329
0.297264
1.14523
4.38868
9.32469
6.70799
0.0583261
0.00462667
0.0641943
0.177926
0.486524
1.3699
3.71305
5.20294
4.41126
0.0611724
0.00598275
0.0860896
0.254848
0.639808
1.47845
3.20396
3.05803
2.94382
0.0629881
0.0114183
0.109567
0.332133
0.774864
1.56069
2.82445
1.99401
2.12258
0.0632683
0.0185399
0.138014
0.410515
0.911061
1.63977
2.31531
1.07862
1.31119
15.034
1021.07
1299.57
1534.03
1658.54
1658.16
1431.99
1095.65
47.6826
0.675946
8.3622
5.74018
6.31145
6.75896
8.10505
8.76755
5.30424
21.5622
0.0932565
0.690092
1.22618
1.25459
0.560039
0.351368
4.70913
20.0804
13.4552
0.0341593
0.0218013
0.024246
0.0716091
0.0619557
0.495203
3.88209
14.3349
9.00508
0.0437291
0.0135705
0.0502795
0.0972604
0.240363
0.876783
3.34654
8.31158
5.86744
0.0478027
0.00378339
0.046538
0.149442
0.404964
1.10568
2.94966
4.75798
3.87253
0.0506273
0.00154742
0.0620089
0.21192
0.547731
1.23654
2.63085
2.85432
2.5955
0.0523799
0.0034632
0.0811092
0.280731
0.675675
1.33751
2.38488
1.87793
1.88054
0.0526817
0.0076064
0.105233
0.350517
0.806978
1.44117
2.01436
1.04024
1.16729
11.4712
904.826
1094.2
1253.21
1322.31
1304.87
1135.47
892.593
35.1265
0.686684
6.81983
4.49284
5.73533
6.10468
6.87911
7.45187
3.43425
15.0248
0.0582459
0.607211
0.982737
1.18661
0.663322
0.15859
2.37438
12.7552
9.32382
0.0186132
0.0937533
0.0155298
0.0570711
0.0487567
0.251973
2.22383
9.18615
6.26032
0.0264351
0.0371906
0.0185336
0.0725026
0.178871
0.617526
2.20997
5.44285
4.14732
0.0299901
0.0190414
0.0180252
0.106148
0.314096
0.82003
2.08367
3.20785
2.79752
0.033303
0.0079218
0.0271159
0.157664
0.427729
0.950391
1.93429
1.94568
1.90562
0.034383
0.00242806
0.0418874
0.211648
0.534762
1.04443
1.79637
1.27507
1.39992
0.0348722
0.000686783
0.0581348
0.265987
0.652209
1.14855
1.53946
0.684195
0.874099
2.94074
9.14582
10.7171
13.0651
14.8498
15.4283
15.3148
9.33601
10.6159
0.429701
0.537157
0.932889
1.51082
2.58696
3.39984
3.50413
1.909
4.00496
0.0152398
0.0557505
0.156769
0.302531
0.552282
0.79588
0.848171
0.91154
3.26421
0.00494573
0.0208954
0.0458072
0.0683141
0.137561
0.214387
0.287734
1.17244
2.51044
0.00745462
0.0259872
0.049596
0.0685134
0.0923947
0.0974029
0.18886
1.11332
1.83123
0.00990293
0.0316963
0.0588112
0.082249
0.0854666
0.0549199
0.192331
0.974575
1.33077
0.0113246
0.0357498
0.0654221
0.0860581
0.0819944
0.0301205
0.21109
0.812199
0.948503
0.0120898
0.0370275
0.0666857
0.0881987
0.0765005
0.0134356
0.229827
0.704297
0.720684
0.0123945
0.0375746
0.0671168
0.0871899
0.0709325
0.0215449
0.227429
0.527561
0.459635
)
;


// ************************************************************************* //
