/*--------------------------------*- C++ -*----------------------------------*\
  =========                 |
  \\      /  F ield         | OpenFOAM: The Open Source CFD Toolbox
   \\    /   O peration     | Website:  https://openfoam.org
    \\  /    A nd           | Version:  11
     \\/     M anipulation  |
\*---------------------------------------------------------------------------*/
FoamFile
{
    format      ascii;
    class       volVectorField;
    location    "200";
    object      U;
}
// * * * * * * * * * * * * * * * * * * * * * * * * * * * * * * * * * * * * * //

dimensions      [0 1 -1 0 0 0 0];

internalField   nonuniform List<vector> 
729
(
(1.09211 -2.78983 -0.543032)
(0.840809 -1.90145 -0.560275)
(1.46331 -1.28783 -0.557299)
(1.88423 -0.743739 -0.44567)
(2.19067 -0.423863 -0.311255)
(2.35412 -0.23712 -0.14932)
(2.4885 -0.13531 0.131825)
(1.69676 -0.0163722 0.444763)
(3.22712 1.24401 0.333229)
(-0.594918 0.335666 0.155883)
(0.0466809 0.839131 0.325135)
(0.211973 0.416982 0.170628)
(0.63763 0.320496 0.137832)
(0.954142 0.175502 0.0987025)
(1.15666 0.0278965 0.0732704)
(1.1736 -0.145071 0.0739214)
(0.665918 -0.191225 0.0544589)
(0.346193 1.75512 0.0446666)
(-0.187603 -0.106473 -0.0870557)
(0.121516 -0.67952 0.0834322)
(0.222113 -0.779989 0.10269)
(0.412535 -0.705568 0.141328)
(0.568434 -0.545351 0.139405)
(0.639684 -0.334872 0.107326)
(0.584673 -0.0428347 0.0409672)
(0.209935 0.499528 -0.0817662)
(-0.233251 2.07026 -0.19198)
(0.0491679 -0.418158 0.068958)
(0.146785 -0.87275 0.105355)
(0.213925 -0.965268 0.0781722)
(0.305366 -0.879191 0.0739317)
(0.37461 -0.657837 0.0769257)
(0.374693 -0.31467 0.0773953)
(0.301337 0.181177 0.0394549)
(-0.00775286 1.03792 -0.0853238)
(-0.310209 2.16594 -0.236719)
(0.0620826 -0.627376 0.0435658)
(0.12607 -1.04909 0.0512688)
(0.172406 -1.11808 0.0436198)
(0.220899 -1.01031 0.0285713)
(0.249832 -0.737163 0.0212066)
(0.228297 -0.311097 0.0313114)
(0.14144 0.323158 0.027879)
(-0.127825 1.35113 -0.0701523)
(-0.2879 2.11588 -0.20907)
(0.0498249 -0.75578 0.0338717)
(0.0880945 -1.13922 0.0359934)
(0.111491 -1.19652 0.0267931)
(0.133067 -1.0637 0.0115333)
(0.138323 -0.738168 -0.00409678)
(0.108851 -0.250058 -0.000736026)
(0.0137598 0.475459 0.00915591)
(-0.203649 1.53668 -0.0626672)
(-0.253265 2.00707 -0.176292)
(0.0295833 -0.85217 0.0200692)
(0.0478808 -1.19377 0.0199014)
(0.0563681 -1.23991 0.0128754)
(0.0619934 -1.08318 0.0014092)
(0.0549325 -0.707358 -0.0140624)
(0.0176525 -0.164365 -0.0173209)
(-0.0821773 0.630387 -0.00601567)
(-0.245809 1.64408 -0.0586461)
(-0.220441 1.87434 -0.147289)
(0.0135442 -0.901813 0.0112909)
(0.0178587 -1.21533 0.0109183)
(0.016504 -1.25296 0.00481673)
(0.0127169 -1.07416 -0.00363857)
(5.19578e-05 -0.656888 -0.0156533)
(-0.04761 -0.0589558 -0.0263065)
(-0.15087 0.763492 -0.0200925)
(-0.267269 1.704 -0.0591324)
(-0.191052 1.74994 -0.126414)
(0.00639093 -0.922359 0.00757819)
(0.00418612 -1.22218 0.00691101)
(-0.0015078 -1.25269 0.00207694)
(-0.00983467 -1.05876 -0.00463196)
(-0.0269509 -0.60718 -0.0145557)
(-0.0957646 0.0890203 -0.0288781)
(-0.186652 0.916398 -0.0316837)
(-0.247128 1.70845 -0.0604449)
(-0.146019 1.55793 -0.100528)
(0.443216 -3.97116 -0.512861)
(0.836028 -2.76387 -0.496791)
(1.3383 -1.63081 -0.46283)
(1.72166 -0.943789 -0.362895)
(1.98687 -0.556312 -0.230794)
(2.20355 -0.299818 -0.0529392)
(2.44682 -0.0351618 0.250503)
(2.23299 0.711374 0.563841)
(3.79663 2.52268 0.490564)
(0.0502352 0.874707 0.391918)
(0.175314 0.184457 0.232183)
(0.522039 -0.0900929 0.114735)
(0.89908 -0.155939 0.0586238)
(1.16848 -0.184706 0.0353268)
(1.30768 -0.20162 0.0436219)
(1.29028 -0.179757 0.0922128)
(0.834548 0.219773 0.124971)
(0.836418 2.66906 0.16907)
(0.000152486 -0.901587 0.106317)
(0.2207 -1.22656 0.169328)
(0.374182 -1.05037 0.225734)
(0.577728 -0.797363 0.210007)
(0.738092 -0.550882 0.159865)
(0.784343 -0.29107 0.0984819)
(0.682736 0.0716784 0.0323302)
(0.278587 0.757196 -0.0597746)
(0.107734 2.78276 -0.120263)
(0.0843245 -0.835094 0.116893)
(0.15812 -1.15952 0.116355)
(0.231188 -1.08952 0.110407)
(0.335658 -0.870109 0.112158)
(0.42272 -0.569144 0.100481)
(0.433805 -0.196192 0.0706725)
(0.355557 0.314533 0.0207035)
(0.0646478 1.14961 -0.0602318)
(-0.0524427 2.82112 -0.17362)
(0.0704576 -1.02143 0.0702264)
(0.143184 -1.25956 0.0783759)
(0.187847 -1.15253 0.0652572)
(0.232114 -0.92665 0.0507178)
(0.257372 -0.585003 0.038702)
(0.236714 -0.136764 0.0331941)
(0.17124 0.461199 0.0154519)
(-0.0403099 1.35531 -0.0320948)
(-0.0806411 2.69136 -0.139028)
(0.0513891 -1.09756 0.0489881)
(0.0945988 -1.27544 0.049322)
(0.11632 -1.16583 0.0371937)
(0.1369 -0.934207 0.0192808)
(0.140685 -0.56725 0.000592243)
(0.108352 -0.0760828 -0.00112913)
(0.0484885 0.571573 0.00173969)
(-0.112551 1.48339 -0.0174534)
(-0.0897219 2.50787 -0.106164)
(0.0291055 -1.15859 0.0278799)
(0.052194 -1.28096 0.0270652)
(0.0593616 -1.17094 0.0174098)
(0.0649862 -0.930459 0.00215453)
(0.0560664 -0.544464 -0.0167597)
(0.0210211 -0.0184322 -0.0216748)
(-0.0355854 0.664586 -0.0108342)
(-0.156528 1.56783 -0.0124094)
(-0.0960881 2.32688 -0.0832643)
(0.0134345 -1.18575 0.0152546)
(0.0214823 -1.27541 0.0135364)
(0.0205946 -1.16439 0.00618824)
(0.0160392 -0.914623 -0.00500272)
(-4.93558e-05 -0.510064 -0.0201305)
(-0.03731 0.0404743 -0.0321044)
(-0.0949264 0.74448 -0.0221211)
(-0.182408 1.62209 -0.0139412)
(-0.0990195 2.17466 -0.0682107)
(0.00642562 -1.19658 0.00975177)
(0.0074917 -1.27105 0.00762212)
(0.00280856 -1.15596 0.00153858)
(-0.00717851 -0.896953 -0.0067606)
(-0.028603 -0.472779 -0.0169144)
(-0.0704608 0.106545 -0.0298191)
(-0.123371 0.815616 -0.0269895)
(-0.173961 1.61334 -0.0196333)
(-0.0881993 1.94125 -0.0514234)
(0.427638 -4.01309 -0.355473)
(0.879485 -2.89364 -0.359495)
(1.37707 -1.6671 -0.333669)
(1.74153 -0.959596 -0.264373)
(1.98429 -0.574463 -0.170364)
(2.20788 -0.326368 -0.0434449)
(2.44629 -0.037546 0.159932)
(2.33043 0.912412 0.3716)
(3.734 2.9454 0.41123)
(0.320004 0.748045 0.212936)
(0.327011 0.0388665 0.1129)
(0.645685 -0.188281 0.0403485)
(0.978299 -0.238954 0.012172)
(1.20916 -0.246281 0.00768884)
(1.31689 -0.240241 0.0247869)
(1.2595 -0.178671 0.0692015)
(0.789076 0.352566 0.120838)
(0.794951 2.97851 0.246237)
(0.0349385 -1.18007 0.133557)
(0.268649 -1.3157 0.172291)
(0.447723 -1.04773 0.164399)
(0.638858 -0.779339 0.134129)
(0.772322 -0.529723 0.0962216)
(0.78889 -0.255081 0.0589998)
(0.65041 0.149616 0.0220345)
(0.204919 0.940172 -0.0141981)
(0.0585346 3.12151 0.0317928)
(0.0828486 -0.950132 0.0991316)
(0.143566 -1.17035 0.095766)
(0.227407 -1.02626 0.0928644)
(0.345394 -0.790808 0.0908035)
(0.430464 -0.495687 0.0746639)
(0.426893 -0.120291 0.0474205)
(0.328014 0.42452 0.00971718)
(0.00983908 1.36106 -0.0333612)
(-0.094349 3.17264 -0.0416875)
(0.0666794 -1.1202 0.0597781)
(0.136426 -1.25066 0.0568664)
(0.181651 -1.08394 0.0452552)
(0.226923 -0.83524 0.0360814)
(0.248284 -0.487744 0.0293414)
(0.219045 -0.0379976 0.021226)
(0.143018 0.578179 0.00198)
(-0.0754382 1.53944 -0.0289853)
(-0.107237 3.00102 -0.0472802)
(0.0480227 -1.16998 0.0378862)
(0.0903098 -1.25195 0.0329173)
(0.111434 -1.09463 0.0219413)
(0.132426 -0.841625 0.00859409)
(0.130374 -0.468166 -0.00272078)
(0.0889661 0.0279489 -0.00535846)
(0.0216346 0.683741 -0.0099008)
(-0.137567 1.63607 -0.028854)
(-0.106247 2.76449 -0.04569)
(0.0271103 -1.22226 0.0213207)
(0.0504766 -1.25786 0.0171342)
(0.0569128 -1.10277 0.0083656)
(0.060762 -0.840343 -0.0037035)
(0.0469127 -0.445287 -0.0173168)
(0.00379583 0.0835414 -0.0226081)
(-0.0574727 0.767191 -0.0212005)
(-0.174835 1.69781 -0.0310718)
(-0.10721 2.54669 -0.0447242)
(0.0123769 -1.24475 0.0116243)
(0.02094 -1.25257 0.00836919)
(0.0193732 -1.09826 0.0016203)
(0.0129168 -0.826072 -0.00782597)
(-0.00798184 -0.415363 -0.0205701)
(-0.0504936 0.13364 -0.0305418)
(-0.109646 0.834682 -0.0301699)
(-0.193951 1.73517 -0.0343558)
(-0.106054 2.37281 -0.0432244)
(0.00588204 -1.25316 0.00774139)
(0.00747372 -1.24778 0.00480863)
(0.0023131 -1.09016 -0.00083737)
(-0.00967125 -0.808146 -0.00839402)
(-0.0348465 -0.381585 -0.0182461)
(-0.0767374 0.184918 -0.0285836)
(-0.128572 0.886968 -0.0316405)
(-0.178165 1.71016 -0.0340216)
(-0.0916739 2.12209 -0.0370417)
(0.44116 -4.05724 -0.16781)
(0.911474 -2.92904 -0.167095)
(1.41003 -1.66276 -0.156376)
(1.76888 -0.94955 -0.126417)
(2.00425 -0.571538 -0.0815856)
(2.23028 -0.332569 -0.018647)
(2.46304 -0.0364488 0.0781864)
(2.35836 0.974875 0.174691)
(3.66875 3.07279 0.214087)
(0.387441 0.666127 0.086051)
(0.394677 0.0116413 0.0526384)
(0.704461 -0.192329 0.0168404)
(1.01676 -0.241415 0.00148869)
(1.22793 -0.24868 0.000525474)
(1.31695 -0.241742 0.0119332)
(1.23228 -0.171455 0.0373671)
(0.74501 0.401464 0.0704186)
(0.724799 3.02707 0.16098)
(0.0463968 -1.24101 0.0856683)
(0.296957 -1.31228 0.0970519)
(0.49297 -1.03236 0.085072)
(0.671169 -0.765376 0.0656085)
(0.783148 -0.51474 0.0459854)
(0.775305 -0.230396 0.0282305)
(0.606879 0.198986 0.0123055)
(0.131216 1.04836 0.00319656)
(-0.0181497 3.19686 0.0545418)
(0.0814315 -0.996592 0.0512349)
(0.139754 -1.17099 0.0509947)
(0.234496 -1.00753 0.0527994)
(0.355361 -0.765174 0.0496641)
(0.429233 -0.466226 0.0388407)
(0.407504 -0.077172 0.0229084)
(0.284981 0.501723 0.00348536)
(-0.0598475 1.51557 -0.01246)
(-0.16555 3.28356 0.00739055)
(0.0641274 -1.15581 0.0334362)
(0.132777 -1.24227 0.0309333)
(0.17664 -1.05429 0.0253494)
(0.21982 -0.791994 0.0210167)
(0.235104 -0.438657 0.0165216)
(0.194496 0.0219184 0.00979606)
(0.101676 0.669224 -0.00175061)
(-0.131651 1.70087 -0.0139431)
(-0.164859 3.11399 -0.00274765)
(0.0458427 -1.19807 0.0205782)
(0.0868571 -1.23965 0.0174989)
(0.10648 -1.06003 0.0115219)
(0.124662 -0.791646 0.00421922)
(0.11533 -0.408298 -0.00178005)
(0.0641612 0.0985457 -0.00437169)
(-0.0167636 0.780576 -0.00823165)
(-0.182502 1.78793 -0.0154414)
(-0.151494 2.86238 -0.0058066)
(0.0257152 -1.24586 0.0119206)
(0.0480695 -1.2432 0.00903787)
(0.0528442 -1.06566 0.00388857)
(0.0538159 -0.786939 -0.00318826)
(0.0340481 -0.380378 -0.0107933)
(-0.0176082 0.159193 -0.0141849)
(-0.0901744 0.865183 -0.0143)
(-0.210886 1.83702 -0.0170472)
(-0.142817 2.631 -0.00782015)
(0.011385 -1.26526 0.00673382)
(0.0195233 -1.23635 0.00432033)
(0.0165088 -1.05997 0.000141839)
(0.00745015 -0.77158 -0.00562823)
(-0.0183697 -0.349483 -0.0129794)
(-0.0675876 0.210064 -0.0185677)
(-0.135207 0.930312 -0.018799)
(-0.221925 1.86192 -0.0184896)
(-0.133649 2.44834 -0.00869569)
(0.00541506 -1.27211 0.00495102)
(0.00657281 -1.23064 0.002586)
(0.000275337 -1.05112 -0.00105522)
(-0.0138918 -0.753093 -0.00577113)
(-0.0430092 -0.316163 -0.0116046)
(-0.0888393 0.258234 -0.017247)
(-0.145796 0.975419 -0.0188268)
(-0.197993 1.82087 -0.017241)
(-0.111147 2.18619 -0.00764328)
(0.44764 -4.09732 0.0132283)
(0.923533 -2.94174 0.00788723)
(1.42188 -1.66063 0.00677284)
(1.77946 -0.944823 0.00547931)
(2.013 -0.569058 0.00453756)
(2.23945 -0.333041 0.00388458)
(2.46936 -0.0344778 0.00347785)
(2.36586 0.992831 0.00299279)
(3.64801 3.10593 0.00178262)
(0.403211 0.644555 0.00400938)
(0.41367 0.00409295 0.00762078)
(0.721848 -0.191652 0.00653478)
(1.02845 -0.239107 0.00484594)
(1.23373 -0.246738 0.00370396)
(1.31659 -0.240293 0.00301689)
(1.22281 -0.168017 0.00259564)
(0.729215 0.415435 0.00234529)
(0.701068 3.02749 0.00215315)
(0.0513854 -1.25356 0.000315858)
(0.307781 -1.31221 0.00540897)
(0.507186 -1.02881 0.00418523)
(0.680656 -0.760608 0.0025027)
(0.78526 -0.508888 0.00180286)
(0.768757 -0.221174 0.00158323)
(0.58965 0.216287 0.00152554)
(0.103132 1.08509 0.00155776)
(-0.0468014 3.19861 0.00165466)
(0.0813588 -1.01415 -0.00152424)
(0.139488 -1.17375 0.00183965)
(0.237505 -1.00448 0.000512335)
(0.358245 -0.758751 -0.000508346)
(0.427356 -0.456985 -0.000418985)
(0.39848 -0.0619537 5.13096e-05)
(0.266666 0.529562 0.000553724)
(-0.0879053 1.56906 0.00100652)
(-0.193416 3.30065 0.0012784)
(0.0634764 -1.16628 0.00028497)
(0.131292 -1.23883 -0.000279732)
(0.174325 -1.04525 -0.0008629)
(0.216445 -0.778409 -0.00149297)
(0.229082 -0.422419 -0.00143324)
(0.183671 0.0433899 -0.000860753)
(0.0836 0.703413 -0.000124967)
(-0.155156 1.75958 0.000577829)
(-0.188264 3.13609 0.00102442)
(0.0448447 -1.20656 0.000792674)
(0.0853726 -1.23507 -1.12242e-05)
(0.104289 -1.04865 -0.000838945)
(0.121004 -0.774777 -0.00143455)
(0.108605 -0.387362 -0.00156657)
(0.0532904 0.124559 -0.00119571)
(-0.0336798 0.818206 -0.000499689)
(-0.202066 1.845 0.000260997)
(-0.170432 2.88198 0.00081166)
(0.0251025 -1.25248 0.00106214)
(0.0469728 -1.23743 2.29727e-05)
(0.0510116 -1.0529 -0.00076005)
(0.0507337 -0.768295 -0.00123254)
(0.0282639 -0.356869 -0.00138693)
(-0.0271738 0.187902 -0.00118612)
(-0.105071 0.90437 -0.000640668)
(-0.227374 1.89055 6.43856e-05)
(-0.158178 2.64741 0.0006392)
(0.0109582 -1.2708 0.00118702)
(0.0188522 -1.22993 6.77386e-05)
(0.0152407 -1.04655 -0.000689918)
(0.00501521 -0.75227 -0.00108508)
(-0.0230374 -0.325064 -0.00118077)
(-0.0755021 0.24003 -0.00103555)
(-0.147574 0.969729 -0.000635687)
(-0.2356 1.9117 -3.22269e-05)
(-0.146021 2.46267 0.000516377)
(0.00510559 -1.27713 0.00163492)
(0.00609198 -1.22392 0.000316857)
(-0.000713295 -1.03739 -0.000506886)
(-0.0158715 -0.733484 -0.000913557)
(-0.0467595 -0.291503 -0.000986813)
(-0.0948832 0.2881 -0.000864805)
(-0.155059 1.0136 -0.000551397)
(-0.208728 1.86624 -6.12805e-05)
(-0.120454 2.19844 0.000412102)
(0.434722 -4.06461 0.210641)
(0.909918 -2.93715 0.185884)
(1.40931 -1.66442 0.170612)
(1.76814 -0.949574 0.137277)
(2.00355 -0.571034 0.0903737)
(2.22975 -0.332048 0.0261031)
(2.46255 -0.0358331 -0.0715499)
(2.35815 0.975766 -0.169083)
(3.66871 3.07368 -0.211172)
(0.394309 0.658814 -0.0765721)
(0.393609 0.00413412 -0.0350961)
(0.704272 -0.193714 -0.00266048)
(1.01555 -0.241488 0.00830836)
(1.22678 -0.248334 0.00677687)
(1.31605 -0.241272 -0.00604011)
(1.23149 -0.170815 -0.0323712)
(0.744097 0.402654 -0.0660842)
(0.724514 3.02843 -0.157473)
(0.0487718 -1.24263 -0.0899577)
(0.29699 -1.31678 -0.0903713)
(0.493391 -1.03353 -0.0778087)
(0.670128 -0.764911 -0.0609186)
(0.782024 -0.514055 -0.0424969)
(0.774327 -0.229585 -0.0251717)
(0.605948 0.200029 -0.00937791)
(0.130124 1.05004 -0.000334633)
(-0.0187527 3.19822 -0.051832)
(0.0828159 -0.990241 -0.0542145)
(0.137244 -1.17003 -0.0517276)
(0.234949 -1.00704 -0.0533799)
(0.355153 -0.764321 -0.0510695)
(0.428583 -0.465435 -0.0398215)
(0.406854 -0.0762065 -0.0229044)
(0.284225 0.503054 -0.0024559)
(-0.060859 1.51773 0.0143038)
(-0.166262 3.28504 -0.00529782)
(0.0648257 -1.15141 -0.0325703)
(0.133189 -1.23917 -0.0312333)
(0.176687 -1.05322 -0.0271123)
(0.219586 -0.790842 -0.0240486)
(0.234831 -0.437587 -0.0194091)
(0.194091 0.023146 -0.0115384)
(0.101065 0.670836 0.00147353)
(-0.132474 1.7033 0.0149788)
(-0.165526 3.11548 0.00439809)
(0.0455318 -1.19443 -0.018935)
(0.0869588 -1.23695 -0.0178425)
(0.106732 -1.05837 -0.013328)
(0.12477 -0.790524 -0.00705711)
(0.115356 -0.407219 -0.00126125)
(0.0639433 0.0999056 0.00205098)
(-0.0172497 0.782406 0.00725877)
(-0.18315 1.79049 0.0158888)
(-0.152059 2.86383 0.00709702)
(0.0257306 -1.24288 -0.00972086)
(0.0482942 -1.2407 -0.00908055)
(0.0531758 -1.06408 -0.00544205)
(0.0541035 -0.785903 0.0007718)
(0.0342242 -0.379335 0.00814019)
(-0.0176911 0.160615 0.0119328)
(-0.0905515 0.86715 0.0130861)
(-0.211399 1.83962 0.0171373)
(-0.143276 2.63243 0.00882662)
(0.01144 -1.26253 -0.00425306)
(0.0197798 -1.23398 -0.00418838)
(0.016855 -1.05843 -0.00153174)
(0.00779209 -0.770574 0.00348938)
(-0.0181339 -0.348445 0.0107127)
(-0.0675916 0.211508 0.0166198)
(-0.135501 0.932343 0.017615)
(-0.222345 1.86452 0.0184089)
(-0.13402 2.44977 0.00950351)
(0.00547014 -1.26968 -0.00158608)
(0.00678827 -1.22851 -0.00193949)
(0.000559904 -1.04969 3.67948e-05)
(-0.0136011 -0.752153 0.00395803)
(-0.0428173 -0.315162 0.00969061)
(-0.0888265 0.259727 0.0156141)
(-0.146031 0.977495 0.0178043)
(-0.19834 1.82346 0.0171071)
(-0.111428 2.18761 0.00828771)
(0.399272 -3.93691 0.41947)
(0.872513 -2.91638 0.383334)
(1.37435 -1.66976 0.347591)
(1.74036 -0.960025 0.274112)
(1.98335 -0.573589 0.177881)
(2.20739 -0.325438 0.0497367)
(2.44582 -0.0363082 -0.154363)
(2.33044 0.913949 -0.367269)
(3.73422 2.94663 -0.410178)
(0.364586 0.783993 -0.206659)
(0.321149 0.0163611 -0.0873118)
(0.643652 -0.18888 -0.023684)
(0.974231 -0.238486 -0.00257309)
(1.20645 -0.245174 -0.00101258)
(1.31516 -0.239122 -0.0194934)
(1.25821 -0.177324 -0.0648668)
(0.787664 0.354806 -0.117553)
(0.794935 2.98107 -0.244802)
(0.0615499 -1.1779 -0.152068)
(0.272476 -1.3061 -0.164806)
(0.447891 -1.04767 -0.157237)
(0.635304 -0.777888 -0.129941)
(0.76969 -0.528244 -0.0932449)
(0.786961 -0.25346 -0.0563919)
(0.648855 0.151598 -0.0195449)
(0.203271 0.942899 0.0163311)
(0.0580108 3.12472 -0.0306573)
(0.0903379 -0.929478 -0.104481)
(0.145359 -1.1593 -0.0981342)
(0.228022 -1.02557 -0.0949666)
(0.34471 -0.790014 -0.0927862)
(0.429197 -0.494666 -0.0761239)
(0.425824 -0.11864 -0.0477638)
(0.326895 0.426872 -0.00896134)
(0.00832963 1.3647 0.0346872)
(-0.0951366 3.17588 0.042601)
(0.0672098 -1.10113 -0.0588173)
(0.136902 -1.23953 -0.0571495)
(0.182549 -1.08054 -0.0471074)
(0.226929 -0.833572 -0.0390459)
(0.248062 -0.486318 -0.032212)
(0.218559 -0.0359457 -0.0229927)
(0.14222 0.580967 -0.00233012)
(-0.0766499 1.54357 0.029694)
(-0.108052 3.00416 0.0479745)
(0.0483713 -1.15464 -0.0361282)
(0.0908892 -1.24323 -0.0334494)
(0.112401 -1.09096 -0.0238284)
(0.132998 -0.839981 -0.0112273)
(0.130759 -0.466673 2.1157e-05)
(0.0888536 0.0301727 0.00330276)
(0.0210584 0.686849 0.00903176)
(-0.138473 1.64042 0.0291396)
(-0.106959 2.76753 0.0462041)
(0.0274203 -1.20817 -0.019018)
(0.0512275 -1.25014 -0.0173069)
(0.0579318 -1.09924 -0.00993437)
(0.061589 -0.838767 0.00147361)
(0.0474976 -0.443847 0.0150476)
(0.00389673 0.085819 0.0207431)
(-0.057874 0.770485 0.0202084)
(-0.175514 1.70224 0.0311168)
(-0.107792 2.54969 0.0451125)
(0.0125739 -1.23119 -0.00902058)
(0.0216955 -1.2454 -0.00825074)
(0.0203148 -1.09484 -0.00301781)
(0.0137778 -0.824519 0.00580335)
(-0.00734215 -0.413921 0.0185907)
(-0.0502853 0.135918 0.0289635)
(-0.109931 0.838046 0.0292562)
(-0.194492 1.73959 0.0342975)
(-0.106525 2.3758 0.0435368)
(0.0062296 -1.24009 -0.00441483)
(0.00813452 -1.24108 -0.0041815)
(0.00308149 -1.08695 -0.000204924)
(-0.0089451 -0.806712 0.00662872)
(-0.0343303 -0.380227 0.0165092)
(-0.0765414 0.187277 0.0272293)
(-0.128805 0.890383 0.0308616)
(-0.178616 1.71457 0.0339207)
(-0.0920309 2.12504 0.0373098)
(0.283703 -3.59133 0.525025)
(0.823314 -2.83359 0.528223)
(1.33319 -1.63582 0.473278)
(1.72289 -0.947889 0.370746)
(1.98805 -0.556398 0.236494)
(2.20514 -0.299472 0.0573955)
(2.44776 -0.0330707 -0.246713)
(2.23446 0.713542 -0.561605)
(3.79756 2.52313 -0.49084)
(0.171623 1.11361 -0.414286)
(0.133969 0.106316 -0.210278)
(0.509537 -0.0828297 -0.100313)
(0.888563 -0.154435 -0.0514323)
(1.16335 -0.18191 -0.0303142)
(1.30545 -0.199328 -0.0395443)
(1.28922 -0.177293 -0.0890286)
(0.833428 0.223204 -0.123409)
(0.837895 2.67209 -0.169836)
(0.0922062 -0.907465 -0.122286)
(0.229055 -1.22217 -0.187382)
(0.374092 -1.05197 -0.218276)
(0.569888 -0.795064 -0.207925)
(0.733489 -0.548242 -0.157831)
(0.781629 -0.288362 -0.09669)
(0.681162 0.07478 -0.0305756)
(0.277263 0.760716 0.0608072)
(0.108353 2.78639 0.119615)
(0.106558 -0.774494 -0.124284)
(0.162659 -1.1432 -0.120524)
(0.233958 -1.08986 -0.111457)
(0.33465 -0.87159 -0.11443)
(0.421578 -0.568918 -0.102273)
(0.432815 -0.19429 -0.0713443)
(0.354708 0.317574 -0.0202574)
(0.0635639 1.15369 0.0609116)
(-0.0522379 2.82487 0.173172)
(0.0735691 -0.971636 -0.0691311)
(0.144397 -1.23726 -0.079053)
(0.190064 -1.147 -0.0665281)
(0.23326 -0.926734 -0.0531236)
(0.257861 -0.58484 -0.0410916)
(0.236679 -0.134737 -0.0347404)
(0.170847 0.464522 -0.015778)
(-0.0410933 1.35973 0.0324869)
(-0.0806577 2.6952 0.138699)
(0.0527676 -1.05573 -0.0470099)
(0.0961832 -1.25606 -0.0495396)
(0.118508 -1.16033 -0.0387768)
(0.138559 -0.934041 -0.0216905)
(0.141806 -0.567022 -0.0027822)
(0.108752 -0.0740115 -0.00045078)
(0.0483512 0.575072 -0.00237651)
(-0.113061 1.48799 0.0176472)
(-0.0898035 2.51182 0.105885)
(0.030076 -1.11865 -0.0255596)
(0.0540407 -1.26375 -0.0271174)
(0.0616876 -1.16581 -0.0188533)
(0.0667295 -0.9301 -0.00427784)
(0.0572957 -0.544022 0.0149409)
(0.0215957 -0.0163276 0.0203539)
(-0.0355634 0.668126 0.0102031)
(-0.156855 1.57256 0.0124969)
(-0.0961791 2.33096 0.0830404)
(0.0143131 -1.14632 -0.0126705)
(0.0231937 -1.25926 -0.0132063)
(0.0226357 -1.15921 -0.00740133)
(0.0177215 -0.913885 0.00314617)
(0.00119081 -0.509566 0.0185417)
(-0.0366612 0.0425287 0.0310305)
(-0.0948281 0.747994 0.0216119)
(-0.182655 1.62689 0.0139848)
(-0.0991193 2.17886 0.0680428)
(0.00723713 -1.15736 -0.00668554)
(0.00906475 -1.25559 -0.00686738)
(0.00448737 -1.15107 -0.0024245)
(-0.00574867 -0.896402 0.00517229)
(-0.0275925 -0.472502 0.0154579)
(-0.0699022 0.108694 0.0288401)
(-0.123321 0.819171 0.0265608)
(-0.174201 1.61823 0.0196161)
(-0.0882957 1.94547 0.0513433)
(0.0513771 -2.03161 0.443122)
(1.03854 -2.14691 0.599225)
(1.41786 -1.3081 0.557536)
(1.91974 -0.771462 0.453534)
(2.20005 -0.431654 0.315158)
(2.36642 -0.243202 0.152402)
(2.49595 -0.130928 -0.128156)
(1.70067 -0.016403 -0.444834)
(3.22844 1.24435 -0.336625)
(-0.0814124 1.04918 -0.376777)
(-0.306059 0.31234 -0.102036)
(0.245617 0.498851 -0.163707)
(0.592632 0.317382 -0.123495)
(0.94695 0.187929 -0.0918171)
(1.15443 0.0348157 -0.0687103)
(1.17603 -0.13902 -0.0712451)
(0.667581 -0.186796 -0.053872)
(0.352494 1.75606 -0.0455296)
(0.107074 -0.206462 -0.0384727)
(0.09486 -0.687522 -0.0198835)
(0.251551 -0.800868 -0.106976)
(0.396857 -0.700493 -0.13806)
(0.562534 -0.541272 -0.13891)
(0.635993 -0.329254 -0.10625)
(0.583983 -0.0369066 -0.0396243)
(0.210291 0.502707 0.0823158)
(-0.229128 2.07323 0.191267)
(0.0945551 -0.330015 -0.0926524)
(0.148047 -0.85638 -0.0829103)
(0.226548 -0.967842 -0.0801724)
(0.304589 -0.883099 -0.0741862)
(0.373888 -0.659904 -0.0783096)
(0.373854 -0.312636 -0.0783068)
(0.301445 0.185206 -0.0391668)
(-0.00724896 1.0409 0.0856324)
(-0.3072 2.1698 0.236433)
(0.0673236 -0.559196 -0.0458866)
(0.127835 -1.01295 -0.0486319)
(0.178144 -1.10803 -0.0456575)
(0.223111 -1.0104 -0.0303992)
(0.251346 -0.738823 -0.0227283)
(0.228981 -0.309604 -0.0325457)
(0.14209 0.326528 -0.0280908)
(-0.127188 1.35414 0.0702894)
(-0.285903 2.12039 0.208968)
(0.0515361 -0.698361 -0.0335712)
(0.0907947 -1.10865 -0.0354639)
(0.115934 -1.18621 -0.027582)
(0.135867 -1.06445 -0.0134673)
(0.140465 -0.74043 0.00262888)
(0.110133 -0.249117 -0.000295572)
(0.0147047 0.478002 -0.00950191)
(-0.203026 1.53997 0.0627091)
(-0.25197 2.01205 0.176275)
(0.0311093 -0.796824 -0.0191768)
(0.051198 -1.16737 -0.0197837)
(0.0604886 -1.22997 -0.0134545)
(0.064843 -1.08547 -0.003058)
(0.0571169 -0.710466 0.0128278)
(0.0191052 -0.163665 0.0166122)
(-0.0811812 0.632566 0.00572398)
(-0.245287 1.64784 0.0586604)
(-0.219649 1.8797 0.147327)
(0.0150635 -0.846316 -0.010078)
(0.0214628 -1.19086 -0.0106404)
(0.0204807 -1.2437 -0.00630505)
(0.0155163 -1.07796 0.0020507)
(0.00215972 -0.660113 0.0145047)
(-0.0461661 -0.058 0.0257472)
(-0.149952 0.765554 0.0199106)
(-0.266922 1.70821 0.0591623)
(-0.190633 1.75556 0.126493)
(0.00783346 -0.866665 -0.00607728)
(0.00774155 -1.19848 -0.00643412)
(0.00216032 -1.24374 -0.00290288)
(-0.00737059 -1.06331 0.00325878)
(-0.0253234 -0.611523 0.0134294)
(-0.0946096 0.0899293 0.0283209)
(-0.186069 0.918707 0.0315684)
(-0.247045 1.71324 0.060496)
(-0.14584 1.56363 0.100685)
)
;

boundaryField
{
    inlet
    {
        type            fixedValue;
        value           uniform (10 0 0);
    }
    outlet
    {
        type            zeroGradient;
    }
    lowerWall
    {
        type            noSlip;
    }
    upperWall
    {
        type            noSlip;
    }
}


// ************************************************************************* //
