/*--------------------------------*- C++ -*----------------------------------*\
| =========                 |                                                 |
| \\      /  F ield         | OpenFOAM: The Open Source CFD Toolbox           |
|  \\    /   O peration     | Version:  2306                                  |
|   \\  /    A nd           | Website:  www.openfoam.com                      |
|    \\/     M anipulation  |                                                 |
\*---------------------------------------------------------------------------*/
FoamFile
{
    version     2.0;
    format      ascii;
    arch        "LSB;label=32;scalar=64";
    class       volScalarField;
    location    "2.8";
    object      p;
}
// * * * * * * * * * * * * * * * * * * * * * * * * * * * * * * * * * * * * * //

dimensions      [0 2 -2 0 0 0 0];

internalField   nonuniform List<scalar> 
288632
(
53.4526
53.444
53.4536
53.4745
53.5039
53.5403
53.5862
53.6155
53.7065
53.6794
53.8095
53.7845
53.8329
-0.937845
-0.849091
-0.976451
-0.75206
-0.768701
-0.648371
-0.556321
-0.458498
-0.358008
-0.256138
-0.153996
-0.0514772
53.4458
53.4423
53.4528
53.4738
53.5032
53.5397
53.5856
53.6152
53.706
53.6797
53.8087
53.7838
53.8329
-0.938413
-0.849826
-0.977955
-0.753157
-0.769828
-0.649369
-0.557149
-0.459178
-0.358537
-0.256514
-0.154222
-0.0515532
53.4432
53.4403
53.4512
53.4722
53.5017
53.5382
53.5842
53.6143
53.7048
53.6801
53.8077
53.7834
53.8335
-0.940616
-0.852643
-0.980836
-0.755645
-0.772137
-0.651364
-0.558835
-0.460556
-0.359605
-0.257274
-0.154676
-0.0517046
53.4393
53.4375
53.4488
53.4699
53.4994
53.536
53.582
53.6129
53.7029
53.6802
53.8061
53.7837
53.8341
-0.944576
-0.856691
-0.985092
-0.759332
-0.775568
-0.654326
-0.561347
-0.462609
-0.361196
-0.258406
-0.155354
-0.0519299
53.4354
53.4342
53.4457
53.4669
53.4964
53.533
53.5791
53.6108
53.7003
53.6802
53.8041
53.7838
53.8347
-0.950105
-0.862354
-0.99068
-0.764259
-0.780094
-0.658226
-0.564656
-0.465312
-0.363291
-0.259896
-0.156245
-0.0522261
53.4314
53.4305
53.4421
53.4633
53.4927
53.5293
53.5755
53.6082
53.6971
53.6801
53.8017
53.784
53.8353
-0.95709
-0.869255
-0.997497
-0.770296
-0.78563
-0.663005
-0.568714
-0.468626
-0.365859
-0.261724
-0.157338
-0.0525893
53.4272
53.4264
53.438
53.4591
53.4884
53.5249
53.5712
53.6051
53.6934
53.6803
53.7989
53.7844
53.8361
-0.965423
-0.87746
-1.00547
-0.777395
-0.792114
-0.668602
-0.573465
-0.472507
-0.368867
-0.263864
-0.158618
-0.0530146
53.4227
53.422
53.4335
53.4544
53.4836
53.52
53.5664
53.6015
53.6892
53.68
53.7964
53.7851
53.8372
-0.974969
-0.886741
-1.01447
-0.785434
-0.799445
-0.674938
-0.578842
-0.476899
-0.372272
-0.266287
-0.160068
-0.0534961
53.418
53.4172
53.4286
53.4493
53.4783
53.5146
53.561
53.5975
53.6846
53.679
53.7949
53.7861
53.8387
-0.985571
-0.897006
-1.02438
-0.794303
-0.807521
-0.68192
-0.584769
-0.481742
-0.376026
-0.268958
-0.161665
-0.054027
53.4132
53.4123
53.4235
53.4439
53.4726
53.5087
53.5552
53.5932
53.6797
53.678
53.7936
53.7877
53.8411
-0.997062
-0.908079
-1.03505
-0.803866
-0.816223
-0.689449
-0.591159
-0.486964
-0.380075
-0.271839
-0.163389
-0.0545996
53.4083
53.4073
53.4182
53.4382
53.4666
53.5026
53.5491
53.5886
53.6747
53.6771
53.7929
53.79
53.8443
-1.00926
-0.919791
-1.04631
-0.813979
-0.82542
-0.697409
-0.597918
-0.492487
-0.384358
-0.274888
-0.165213
-0.0552056
53.4034
53.4022
53.4127
53.4324
53.4604
53.4962
53.5428
53.5838
53.6696
53.6767
53.7927
53.7934
53.8487
-1.02198
-0.931959
-1.05799
-0.824487
-0.834974
-0.705682
-0.604943
-0.49823
-0.388811
-0.278058
-0.167109
-0.0558359
53.3985
53.3971
53.4073
53.4266
53.4541
53.4897
53.5363
53.579
53.6645
53.6766
53.7935
53.798
53.8547
-1.03502
-0.94439
-1.06992
-0.835226
-0.844735
-0.714139
-0.612126
-0.504103
-0.393366
-0.2813
-0.169049
-0.0564807
53.3937
53.3921
53.4019
53.4208
53.4479
53.4833
53.5299
53.5743
53.6597
53.6771
53.7953
53.8039
53.8623
-1.04816
-0.956886
-1.0819
-0.846025
-0.854551
-0.722647
-0.619354
-0.510014
-0.397952
-0.284565
-0.171003
-0.05713
53.3891
53.3872
53.3967
53.4151
53.4418
53.4769
53.5237
53.5697
53.6551
53.6782
53.7983
53.8116
53.8718
-1.06122
-0.969251
-1.09374
-0.856713
-0.864265
-0.731069
-0.626512
-0.515868
-0.402494
-0.287799
-0.172938
-0.0577734
53.3848
53.3827
53.3917
53.4096
53.4359
53.4708
53.5176
53.5655
53.651
53.6798
53.8025
53.8208
53.8831
-1.07396
-0.981283
-1.10525
-0.867117
-0.873718
-0.73927
-0.633484
-0.521572
-0.40692
-0.290951
-0.174824
-0.0584005
53.3808
53.3785
53.3871
53.4045
53.4303
53.465
53.512
53.5616
53.6474
53.6821
53.808
53.8316
53.8961
-1.0862
-0.992791
-1.11625
-0.877068
-0.882755
-0.747115
-0.640153
-0.527029
-0.411155
-0.293967
-0.17663
-0.0590008
53.3773
53.3747
53.3828
53.3997
53.4251
53.4596
53.5068
53.5581
53.6444
53.6848
53.8146
53.8434
53.9107
-1.09772
-1.00358
-1.12653
-0.886399
-0.891225
-0.754472
-0.64641
-0.532149
-0.41513
-0.296798
-0.178324
-0.0595641
53.3743
53.3714
53.3791
53.3955
53.4204
53.4547
53.5021
53.5551
53.6419
53.6879
53.822
53.8558
53.9262
-1.10835
-1.0135
-1.13595
-0.894962
-0.898987
-0.761217
-0.652147
-0.536846
-0.418775
-0.299395
-0.179879
-0.060081
53.3719
53.3686
53.3758
53.3917
53.4163
53.4504
53.498
53.5526
53.64
53.6912
53.8297
53.8683
53.942
-1.11791
-1.02236
-1.14433
-0.902602
-0.905904
-0.767236
-0.657266
-0.541037
-0.422029
-0.301713
-0.181267
-0.0605424
53.3703
53.3664
53.3731
53.3886
53.4128
53.4468
53.4945
53.5505
53.6386
53.6945
53.8374
53.8804
53.9573
-1.12625
-1.03007
-1.15154
-0.909213
-0.911868
-0.772426
-0.66168
-0.54465
-0.424835
-0.303711
-0.182463
-0.0609401
53.3694
53.3649
53.371
53.386
53.4099
53.4438
53.4918
53.5489
53.6376
53.6974
53.8444
53.8913
53.9712
-1.13325
-1.03643
-1.15743
-0.914653
-0.916761
-0.776691
-0.665309
-0.547622
-0.427143
-0.305355
-0.183447
-0.0612673
53.3701
53.3641
53.3694
53.3842
53.4078
53.4416
53.4897
53.5478
53.637
53.6999
53.8504
53.9005
53.983
-1.13881
-1.04149
-1.16195
-0.91887
-0.920521
-0.779965
-0.668094
-0.549902
-0.428912
-0.306616
-0.184202
-0.0615178
53.3695
53.3634
53.3684
53.3829
53.4064
53.4401
53.4883
53.5471
53.6367
53.7016
53.8545
53.9073
53.9919
-1.14284
-1.04484
-1.16497
-0.921732
-0.923064
-0.782174
-0.669982
-0.551447
-0.430112
-0.30747
-0.184713
-0.0616872
53.3768
53.3642
53.3681
53.3824
53.4057
53.4395
53.4877
53.5468
53.6366
53.7029
53.8574
53.9105
53.9975
-1.14526
-1.04723
-1.16645
-0.923305
-0.924376
-0.783287
-0.670949
-0.552235
-0.430722
-0.307905
-0.184972
-0.0617722
53.4449
53.4412
53.4517
53.4726
53.502
53.5383
53.5842
53.6136
53.7043
53.6778
53.8068
53.7822
53.8316
-0.940929
-0.852224
-0.979766
-0.754707
-0.770488
-0.649935
-0.557242
-0.459014
-0.358235
-0.256188
-0.15397
-0.0514485
53.4382
53.4392
53.451
53.4718
53.5013
53.5377
53.5836
53.6133
53.7037
53.6792
53.8024
53.7815
53.832
-0.941454
-0.852986
-0.9813
-0.755828
-0.771636
-0.65095
-0.558083
-0.459705
-0.358771
-0.256569
-0.154198
-0.0515255
53.4357
53.4372
53.4493
53.4703
53.4998
53.5362
53.5821
53.6124
53.7024
53.6798
53.8007
53.7811
53.8327
-0.943695
-0.855857
-0.984233
-0.758359
-0.773981
-0.652976
-0.559793
-0.461101
-0.359853
-0.257339
-0.154658
-0.0516787
53.4318
53.4345
53.4468
53.4679
53.4974
53.5339
53.5799
53.6108
53.7004
53.6801
53.7985
53.7812
53.8334
-0.947714
-0.859985
-0.988566
-0.76211
-0.777467
-0.655983
-0.562342
-0.463182
-0.361465
-0.258485
-0.155344
-0.0519067
53.4279
53.4313
53.4437
53.4649
53.4944
53.5309
53.5769
53.6087
53.6977
53.68
53.7962
53.7812
53.8339
-0.953323
-0.86575
-0.994251
-0.767119
-0.782063
-0.659942
-0.565698
-0.465921
-0.363587
-0.259994
-0.156246
-0.0522065
53.4238
53.4276
53.4401
53.4612
53.4906
53.5271
53.5732
53.606
53.6944
53.6796
53.7937
53.7813
53.8345
-0.960409
-0.872778
-1.00119
-0.773259
-0.787687
-0.664793
-0.569814
-0.469281
-0.36619
-0.261845
-0.157353
-0.0525742
53.4196
53.4235
53.436
53.457
53.4863
53.5226
53.5688
53.6027
53.6904
53.6791
53.791
53.7814
53.8351
-0.968861
-0.881134
-1.00931
-0.780478
-0.794274
-0.670477
-0.574634
-0.473216
-0.369238
-0.264014
-0.15865
-0.0530049
53.4151
53.419
53.4314
53.4523
53.4814
53.5176
53.5638
53.5989
53.686
53.6781
53.7886
53.7818
53.836
-0.978544
-0.890585
-1.01847
-0.788655
-0.801725
-0.676911
-0.580091
-0.477671
-0.37269
-0.266469
-0.160118
-0.0534926
53.4104
53.4143
53.4265
53.4472
53.476
53.5121
53.5583
53.5947
53.6811
53.6767
53.7865
53.7825
53.8374
-0.989298
-0.901039
-1.02856
-0.797677
-0.809934
-0.684004
-0.586107
-0.482583
-0.376496
-0.269176
-0.161737
-0.0540304
53.4056
53.4094
53.4213
53.4417
53.4702
53.5061
53.5523
53.59
53.6759
53.6753
53.7846
53.7836
53.8394
-1.00095
-0.912317
-1.03942
-0.807407
-0.81878
-0.691652
-0.592595
-0.487882
-0.380602
-0.272097
-0.163484
-0.0546108
53.4006
53.4043
53.416
53.436
53.4641
53.4998
53.5459
53.5851
53.6704
53.674
53.7831
53.7854
53.8423
-1.01333
-0.924248
-1.05088
-0.817699
-0.828133
-0.699743
-0.599459
-0.493488
-0.384947
-0.275189
-0.165333
-0.0552251
53.3957
53.3991
53.4105
53.4301
53.4578
53.4933
53.5393
53.58
53.6648
53.6728
53.7822
53.7883
53.8463
-1.02623
-0.936643
-1.06279
-0.828395
-0.83785
-0.708152
-0.606595
-0.499319
-0.389467
-0.278405
-0.167257
-0.0558642
53.3908
53.394
53.405
53.4242
53.4514
53.4866
53.5326
53.5747
53.6592
53.672
53.7821
53.7922
53.8517
-1.03946
-0.949308
-1.07494
-0.839327
-0.847781
-0.716751
-0.613895
-0.505283
-0.394091
-0.281695
-0.169225
-0.0565183
53.386
53.389
53.3996
53.4183
53.4451
53.48
53.5259
53.5696
53.6538
53.6716
53.7829
53.7976
53.8587
-1.0528
-0.962041
-1.08714
-0.850323
-0.85777
-0.725403
-0.621241
-0.511288
-0.398747
-0.285009
-0.171208
-0.0571771
53.3814
53.3841
53.3943
53.4125
53.4388
53.4734
53.5193
53.5646
53.6486
53.6717
53.7848
53.8044
53.8675
-1.06605
-0.974639
-1.09921
-0.861207
-0.867657
-0.733971
-0.628519
-0.517237
-0.40336
-0.288292
-0.173172
-0.0578302
53.377
53.3796
53.3893
53.407
53.4328
53.4671
53.513
53.5598
53.6438
53.6723
53.788
53.8129
53.8781
-1.07898
-0.986899
-1.11094
-0.871803
-0.877281
-0.742315
-0.635608
-0.523034
-0.407856
-0.291493
-0.175088
-0.0584668
53.373
53.3753
53.3846
53.4018
53.4271
53.4611
53.507
53.5554
53.6396
53.6734
53.7923
53.8227
53.8905
-1.09139
-0.998625
-1.12214
-0.881938
-0.886483
-0.750298
-0.642392
-0.528582
-0.412161
-0.294558
-0.176921
-0.0590764
53.3695
53.3715
53.3803
53.3969
53.4218
53.4555
53.5015
53.5514
53.6359
53.6751
53.7977
53.8334
53.9044
-1.10308
-1.00962
-1.13263
-0.891444
-0.895108
-0.757786
-0.648756
-0.533789
-0.4162
-0.297434
-0.178643
-0.0596487
53.3665
53.3682
53.3765
53.3926
53.417
53.4504
53.4965
53.5479
53.6328
53.6771
53.8039
53.8448
53.9192
-1.11386
-1.01973
-1.14223
-0.900167
-0.903014
-0.764653
-0.654594
-0.538565
-0.419907
-0.300073
-0.180223
-0.0601738
53.3641
53.3654
53.3732
53.3888
53.4127
53.4459
53.4921
53.5449
53.6303
53.6794
53.8105
53.8565
53.9343
-1.12356
-1.02875
-1.15077
-0.907951
-0.91006
-0.77078
-0.659804
-0.542828
-0.423216
-0.30243
-0.181633
-0.0606427
53.3624
53.3632
53.3705
53.3856
53.4091
53.4421
53.4884
53.5425
53.6284
53.6817
53.8171
53.8678
53.9491
-1.13202
-1.0366
-1.15812
-0.914686
-0.916136
-0.776065
-0.664296
-0.546505
-0.426069
-0.304462
-0.182849
-0.061047
53.3616
53.3616
53.3683
53.383
53.4062
53.439
53.4854
53.5405
53.627
53.6838
53.8232
53.878
53.9625
-1.13912
-1.04308
-1.16413
-0.920228
-0.921121
-0.780408
-0.667991
-0.549529
-0.428416
-0.306134
-0.18385
-0.0613795
53.3622
53.3608
53.3668
53.3811
53.404
53.4367
53.4832
53.5391
53.626
53.6856
53.8284
53.8866
53.9739
-1.14476
-1.04823
-1.16873
-0.924523
-0.924951
-0.78374
-0.670826
-0.551849
-0.430217
-0.307416
-0.184617
-0.0616343
53.3614
53.3602
53.3657
53.3798
53.4025
53.4352
53.4817
53.5382
53.6255
53.6869
53.8321
53.8929
53.9823
-1.14884
-1.05164
-1.17181
-0.927437
-0.927541
-0.78599
-0.672747
-0.553421
-0.431437
-0.308284
-0.185137
-0.0618066
53.3693
53.361
53.3654
53.3793
53.4019
53.4345
53.481
53.5378
53.6253
53.6875
53.8357
53.8951
53.9874
-1.1513
-1.05406
-1.17331
-0.929033
-0.928874
-0.787119
-0.67373
-0.554221
-0.432057
-0.308726
-0.1854
-0.0618929
53.44
53.4369
53.4478
53.4686
53.4979
53.5342
53.5798
53.6095
53.6996
53.6744
53.8018
53.7783
53.8288
-0.947941
-0.859669
-0.986089
-0.759867
-0.773766
-0.652702
-0.558799
-0.459791
-0.358477
-0.256126
-0.153807
-0.0513467
53.4335
53.435
53.447
53.4679
53.4972
53.5335
53.5792
53.6092
53.699
53.676
53.7967
53.7775
53.8293
-0.948494
-0.860475
-0.987669
-0.761031
-0.774949
-0.653747
-0.559664
-0.460499
-0.359027
-0.256517
-0.154041
-0.0514253
53.4307
53.4331
53.4453
53.4663
53.4957
53.5319
53.5777
53.6082
53.6976
53.6766
53.7949
53.7771
53.8301
-0.950812
-0.86345
-0.990701
-0.763645
-0.777365
-0.655831
-0.561421
-0.461932
-0.360136
-0.257305
-0.154512
-0.051582
53.4267
53.4303
53.4428
53.4639
53.4933
53.5296
53.5754
53.6065
53.6953
53.6766
53.7925
53.7769
53.8307
-0.954962
-0.867732
-0.995182
-0.767522
-0.780958
-0.658926
-0.56404
-0.464069
-0.361789
-0.25848
-0.155214
-0.0518153
53.4228
53.4271
53.4397
53.4608
53.4902
53.5264
53.5722
53.6041
53.6924
53.6762
53.7898
53.7767
53.831
-0.960759
-0.873709
-1.00106
-0.772698
-0.785697
-0.663003
-0.567491
-0.466881
-0.363965
-0.260027
-0.156139
-0.0521223
53.4187
53.4233
53.4361
53.4571
53.4863
53.5225
53.5683
53.6011
53.6887
53.6754
53.7869
53.7763
53.8312
-0.96808
-0.880997
-1.00824
-0.779044
-0.791497
-0.668
-0.571723
-0.470332
-0.366636
-0.261925
-0.157273
-0.052499
53.4144
53.4191
53.4319
53.4528
53.4818
53.5179
53.5637
53.5975
53.6843
53.6742
53.7837
53.7759
53.8314
-0.976814
-0.88966
-1.01665
-0.786506
-0.798293
-0.673856
-0.576682
-0.474375
-0.369766
-0.264149
-0.158602
-0.0529404
53.4099
53.4146
53.4273
53.448
53.4768
53.5127
53.5584
53.5933
53.6793
53.6725
53.7804
53.7754
53.8316
-0.986819
-0.899461
-1.02614
-0.794961
-0.805983
-0.680488
-0.582299
-0.478956
-0.373311
-0.266669
-0.160108
-0.0534405
53.4052
53.4099
53.4223
53.4428
53.4712
53.5069
53.5525
53.5886
53.6738
53.6703
53.7771
53.7751
53.8321
-0.997931
-0.910302
-1.03659
-0.804292
-0.814459
-0.687802
-0.588494
-0.484008
-0.377222
-0.269449
-0.16177
-0.0539924
53.4003
53.4049
53.4171
53.4372
53.4653
53.5006
53.5461
53.5833
53.6678
53.6679
53.7738
53.7751
53.8331
-1.00998
-0.922001
-1.04784
-0.814361
-0.823599
-0.695694
-0.595179
-0.489462
-0.381444
-0.27245
-0.163564
-0.0545881
53.3954
53.3997
53.4116
53.4313
53.459
53.494
53.5393
53.5777
53.6615
53.6654
53.7706
53.7755
53.8346
-1.02277
-0.934379
-1.05973
-0.825014
-0.833266
-0.704045
-0.602256
-0.495235
-0.385914
-0.275628
-0.165464
-0.0552192
53.3904
53.3945
53.4061
53.4253
53.4525
53.4872
53.5322
53.5718
53.6548
53.6628
53.7677
53.7766
53.8369
-1.03611
-0.947242
-1.07207
-0.836088
-0.843314
-0.712731
-0.609617
-0.501242
-0.390566
-0.278936
-0.167442
-0.0558761
53.3854
53.3894
53.4005
53.4192
53.4459
53.4801
53.5249
53.5658
53.6481
53.6603
53.7654
53.7786
53.8404
-1.04978
-0.960386
-1.08468
-0.847412
-0.853589
-0.721616
-0.61715
-0.507391
-0.395328
-0.282323
-0.169467
-0.0565488
53.3806
53.3843
53.395
53.4132
53.4393
53.4731
53.5176
53.5596
53.6414
53.658
53.7637
53.7819
53.8452
-1.06357
-0.973603
-1.09734
-0.858806
-0.863929
-0.730561
-0.624737
-0.513585
-0.400127
-0.285735
-0.171508
-0.0572268
53.3759
53.3794
53.3896
53.4073
53.4328
53.4661
53.5104
53.5536
53.635
53.656
53.763
53.786
53.8515
-1.07726
-0.986681
-1.10987
-0.870087
-0.874167
-0.739423
-0.632255
-0.519725
-0.404884
-0.289119
-0.173532
-0.0578993
53.3715
53.3747
53.3845
53.4016
53.4265
53.4594
53.5034
53.5478
53.6288
53.6544
53.7633
53.7917
53.8594
-1.09063
-0.999409
-1.12205
-0.881072
-0.884137
-0.748057
-0.639583
-0.525711
-0.409523
-0.29242
-0.175506
-0.0585553
53.3675
53.3704
53.3797
53.3962
53.4205
53.4529
53.4967
53.5424
53.6232
53.6533
53.7648
53.7983
53.869
-1.10346
-1.01158
-1.13368
-0.891583
-0.893673
-0.756321
-0.646599
-0.531443
-0.413967
-0.295581
-0.177397
-0.0591837
53.3639
53.3666
53.3754
53.3913
53.4149
53.4469
53.4906
53.5373
53.6181
53.6527
53.7673
53.8059
53.8799
-1.11554
-1.023
-1.14457
-0.901443
-0.902616
-0.764076
-0.653184
-0.536825
-0.418139
-0.29855
-0.179173
-0.059774
53.3609
53.3632
53.3715
53.3868
53.4099
53.4415
53.4849
53.5328
53.6136
53.6525
53.7706
53.8142
53.8917
-1.12668
-1.03349
-1.15454
-0.910492
-0.910814
-0.771189
-0.659226
-0.541764
-0.421969
-0.301275
-0.180804
-0.0603159
53.3585
53.3604
53.3681
53.3828
53.4054
53.4367
53.48
53.5289
53.6099
53.6527
53.7746
53.823
53.904
-1.1367
-1.04286
-1.16341
-0.918567
-0.918123
-0.777539
-0.66462
-0.546175
-0.425389
-0.303709
-0.18226
-0.0608
53.3568
53.3582
53.3653
53.3795
53.4016
53.4325
53.4758
53.5256
53.6068
53.6531
53.7787
53.8315
53.9161
-1.14545
-1.05101
-1.17104
-0.925555
-0.924426
-0.783016
-0.669273
-0.549979
-0.428339
-0.305809
-0.183516
-0.0612177
53.3559
53.3566
53.3631
53.3768
53.3985
53.4292
53.4723
53.5229
53.6045
53.6537
53.7827
53.8393
53.9271
-1.15278
-1.05773
-1.17729
-0.931304
-0.929599
-0.787517
-0.6731
-0.553109
-0.430767
-0.307537
-0.18455
-0.0615613
53.3565
53.3557
53.3615
53.3749
53.3962
53.4266
53.4697
53.521
53.6028
53.6542
53.7862
53.8459
53.9364
-1.1586
-1.06307
-1.18207
-0.935758
-0.933573
-0.790973
-0.676037
-0.555511
-0.432629
-0.308863
-0.185343
-0.0618246
53.3557
53.3551
53.3604
53.3735
53.3947
53.4249
53.468
53.5196
53.6017
53.6546
53.7886
53.8508
53.9433
-1.16282
-1.06661
-1.18527
-0.938781
-0.936262
-0.793305
-0.678027
-0.557138
-0.433892
-0.309761
-0.185881
-0.0620028
53.3634
53.3559
53.3601
53.373
53.394
53.4242
53.4672
53.5191
53.6013
53.6548
53.7912
53.8537
53.9471
-1.16534
-1.0691
-1.18684
-0.940431
-0.937645
-0.794476
-0.679045
-0.557967
-0.434533
-0.310218
-0.186153
-0.0620922
53.4328
53.4308
53.4419
53.4627
53.4919
53.5278
53.5733
53.6032
53.6926
53.6689
53.7942
53.7728
53.8239
-0.959458
-0.87059
-0.99532
-0.767503
-0.778518
-0.656674
-0.560982
-0.460811
-0.358714
-0.255936
-0.153496
-0.0511676
53.4263
53.429
53.4411
53.462
53.4911
53.5271
53.5726
53.6028
53.6918
53.6706
53.7886
53.7719
53.8244
-0.960071
-0.871475
-0.996974
-0.76873
-0.779753
-0.657763
-0.561881
-0.461546
-0.359284
-0.25634
-0.153737
-0.0512485
53.4235
53.427
53.4394
53.4603
53.4895
53.5255
53.571
53.6017
53.6902
53.671
53.7866
53.7712
53.8251
-0.962522
-0.874612
-1.00016
-0.771472
-0.782278
-0.659936
-0.56371
-0.463034
-0.360434
-0.257156
-0.154224
-0.0514105
53.4195
53.4242
53.4369
53.4579
53.487
53.523
53.5685
53.5998
53.6877
53.6707
53.7836
53.7707
53.8255
-0.966895
-0.879137
-1.00487
-0.775538
-0.786031
-0.663163
-0.566435
-0.465253
-0.362149
-0.258373
-0.154951
-0.0516518
53.4156
53.4209
53.4338
53.4548
53.4838
53.5197
53.5651
53.5971
53.6843
53.6698
53.7804
53.77
53.8254
-0.972997
-0.885436
-1.01105
-0.780967
-0.790985
-0.667417
-0.570027
-0.468176
-0.364407
-0.259976
-0.155908
-0.0519695
53.4115
53.417
53.4301
53.451
53.4798
53.5156
53.5609
53.5937
53.6801
53.6684
53.7767
53.769
53.825
-0.980699
-0.893121
-1.01859
-0.787624
-0.797051
-0.672633
-0.574436
-0.471764
-0.36718
-0.261944
-0.157084
-0.0523596
53.4071
53.4128
53.4258
53.4465
53.4752
53.5107
53.5559
53.5896
53.6751
53.6663
53.7726
53.7676
53.8243
-0.989885
-0.902252
-1.02743
-0.795455
-0.804162
-0.678749
-0.579604
-0.47597
-0.370431
-0.264252
-0.158463
-0.0528171
53.4026
53.4083
53.4211
53.4416
53.4699
53.5052
53.5501
53.5848
53.6693
53.6635
53.7681
53.766
53.8234
-1.00041
-0.912587
-1.03742
-0.804332
-0.812215
-0.685681
-0.585461
-0.480739
-0.374116
-0.266869
-0.160026
-0.0533358
53.3978
53.4034
53.4161
53.4362
53.4641
53.4991
53.5437
53.5793
53.6628
53.6601
53.7631
53.7642
53.8224
-1.0121
-0.924019
-1.04842
-0.814134
-0.821096
-0.69333
-0.591927
-0.486003
-0.378185
-0.269759
-0.161752
-0.0539087
53.3929
53.3984
53.4107
53.4305
53.4579
53.4924
53.5367
53.5732
53.6557
53.6561
53.7576
53.7622
53.8213
-1.02477
-0.93636
-1.06028
-0.824715
-0.830679
-0.701589
-0.59891
-0.491689
-0.382581
-0.27288
-0.163617
-0.0545276
53.3879
53.3931
53.4051
53.4244
53.4513
53.4853
53.5292
53.5665
53.648
53.6517
53.7519
53.7602
53.8203
-1.03823
-0.949421
-1.07281
-0.835918
-0.840823
-0.710336
-0.606307
-0.497714
-0.38724
-0.276189
-0.165593
-0.0551839
53.3828
53.3879
53.3995
53.4182
53.4445
53.478
53.5214
53.5595
53.6398
53.6468
53.7459
53.7586
53.8196
-1.05227
-0.962997
-1.08582
-0.84757
-0.851375
-0.71944
-0.614009
-0.503989
-0.392093
-0.279636
-0.167653
-0.0558676
53.3778
53.3826
53.3938
53.4119
53.4375
53.4704
53.5133
53.5521
53.6314
53.6416
53.74
53.7574
53.8193
-1.06666
-0.976874
-1.09912
-0.85949
-0.862173
-0.72876
-0.621897
-0.510417
-0.397065
-0.283168
-0.169764
-0.0565685
53.3729
53.3774
53.3881
53.4056
53.4306
53.4628
53.505
53.5446
53.6228
53.6363
53.7344
53.7563
53.8199
-1.08118
-0.990831
-1.11249
-0.87149
-0.873046
-0.738151
-0.629847
-0.516898
-0.402079
-0.286731
-0.171893
-0.0572756
53.3682
53.3725
53.3826
53.3995
53.4237
53.4552
53.4969
53.5371
53.6142
53.6309
53.7293
53.7563
53.8214
-1.0956
-1.00464
-1.12571
-0.883378
-0.883819
-0.74746
-0.637733
-0.523328
-0.407055
-0.290267
-0.174006
-0.0579775
53.3638
53.3677
53.3774
53.3936
53.417
53.4478
53.4889
53.5297
53.6059
53.6259
53.7251
53.7567
53.8241
-1.10967
-1.01809
-1.13858
-0.894958
-0.894317
-0.756536
-0.645424
-0.529602
-0.411911
-0.293718
-0.176069
-0.0586627
53.3597
53.3634
53.3725
53.388
53.4107
53.4408
53.4812
53.5226
53.598
53.6211
53.7217
53.7581
53.8281
-1.12318
-1.03095
-1.15087
-0.906042
-0.904364
-0.765229
-0.652792
-0.535614
-0.416565
-0.297026
-0.178047
-0.0593198
53.3561
53.3594
53.368
53.3828
53.4047
53.4342
53.4741
53.516
53.5907
53.6169
53.7194
53.7604
53.8332
-1.1359
-1.043
-1.16238
-0.916442
-0.913789
-0.773389
-0.659713
-0.541263
-0.420939
-0.300136
-0.179906
-0.0599374
53.353
53.356
53.364
53.3781
53.3993
53.4281
53.4675
53.5099
53.5842
53.6132
53.7181
53.7635
53.8393
-1.14763
-1.05409
-1.17291
-0.92599
-0.922434
-0.78088
-0.666067
-0.54645
-0.424956
-0.302992
-0.181614
-0.0605049
53.3505
53.3531
53.3605
53.374
53.3946
53.4228
53.4617
53.5045
53.5784
53.6101
53.7175
53.7671
53.8459
-1.15817
-1.06397
-1.18229
-0.934511
-0.930144
-0.787567
-0.671742
-0.551084
-0.428546
-0.305544
-0.183141
-0.0610121
53.3488
53.3508
53.3576
53.3705
53.3905
53.4182
53.4567
53.4999
53.5736
53.6075
53.7175
53.7708
53.8526
-1.16737
-1.07258
-1.19036
-0.941884
-0.936796
-0.793339
-0.676638
-0.555083
-0.431644
-0.307747
-0.184458
-0.06145
53.3478
53.3492
53.3553
53.3677
53.3872
53.4144
53.4526
53.4962
53.5696
53.6055
53.7178
53.7742
53.8587
-1.17508
-1.07966
-1.19697
-0.947949
-0.942255
-0.798083
-0.680668
-0.558375
-0.434195
-0.309561
-0.185543
-0.0618105
53.3484
53.3483
53.3537
53.3656
53.3847
53.4116
53.4495
53.4933
53.5667
53.604
53.7182
53.777
53.8637
-1.1812
-1.08529
-1.20202
-0.952649
-0.946452
-0.801726
-0.68376
-0.560901
-0.436152
-0.310953
-0.186376
-0.0620869
53.3477
53.3476
53.3526
53.3642
53.383
53.4097
53.4474
53.4914
53.5647
53.603
53.7183
53.7791
53.8672
-1.18561
-1.08902
-1.20541
-0.955836
-0.94929
-0.804185
-0.685856
-0.562613
-0.437478
-0.311897
-0.18694
-0.0622741
53.355
53.3485
53.3522
53.3637
53.3823
53.4088
53.4464
53.4905
53.5638
53.6027
53.7189
53.7803
53.869
-1.18825
-1.09161
-1.20707
-0.957568
-0.950751
-0.80542
-0.686928
-0.563485
-0.438153
-0.312377
-0.187226
-0.0623682
53.4246
53.4232
53.4343
53.455
53.4838
53.5194
53.5645
53.5948
53.6831
53.6613
53.7844
53.7652
53.8168
-0.975274
-0.885297
-1.00751
-0.77761
-0.784686
-0.661766
-0.563707
-0.461993
-0.358877
-0.255562
-0.153003
-0.0509001
53.418
53.4214
53.4335
53.4542
53.483
53.5187
53.5638
53.5943
53.6823
53.663
53.7784
53.7641
53.8173
-0.975968
-0.886288
-1.00926
-0.778923
-0.785991
-0.662914
-0.564653
-0.462764
-0.359473
-0.255984
-0.153254
-0.050984
53.4153
53.4193
53.4318
53.4525
53.4813
53.5169
53.562
53.5929
53.6804
53.663
53.7761
53.7632
53.8178
-0.978608
-0.889646
-1.01265
-0.781836
-0.788659
-0.665206
-0.566576
-0.464325
-0.360677
-0.256837
-0.153763
-0.0511528
53.4112
53.4164
53.4293
53.45
53.4788
53.5143
53.5593
53.5908
53.6775
53.6624
53.7726
53.7623
53.8178
-0.983295
-0.894501
-1.01767
-0.786159
-0.79263
-0.668611
-0.569444
-0.466654
-0.362473
-0.25811
-0.154522
-0.0514047
53.4073
53.413
53.4261
53.4468
53.4754
53.5108
53.5556
53.5877
53.6736
53.6609
53.7686
53.7609
53.8172
-0.989822
-0.901239
-1.02425
-0.791929
-0.797872
-0.673102
-0.573225
-0.469723
-0.36484
-0.259788
-0.155523
-0.0517366
53.4031
53.4092
53.4223
53.4429
53.4712
53.5064
53.551
53.5838
53.6687
53.6586
53.7639
53.7589
53.8158
-0.998055
-0.909465
-1.0323
-0.799008
-0.804296
-0.678612
-0.577868
-0.473493
-0.367748
-0.26185
-0.156753
-0.0521445
53.3988
53.4049
53.4179
53.4383
53.4664
53.5012
53.5456
53.579
53.6629
53.6553
53.7584
53.7563
53.8139
-1.00787
-0.919232
-1.04173
-0.807337
-0.811832
-0.685077
-0.583316
-0.477917
-0.371161
-0.26427
-0.158197
-0.0526234
53.3942
53.4003
53.4131
53.4332
53.4608
53.4953
53.5392
53.5734
53.6561
53.6511
53.7521
53.7529
53.8113
-1.01912
-0.930293
-1.05239
-0.816785
-0.820372
-0.692411
-0.589497
-0.482937
-0.375034
-0.267016
-0.159836
-0.0531668
53.3894
53.3953
53.4079
53.4276
53.4547
53.4887
53.5322
53.5669
53.6483
53.646
53.7448
53.7489
53.8079
-1.03162
-0.942531
-1.06415
-0.827224
-0.829801
-0.700512
-0.596326
-0.488485
-0.379315
-0.270052
-0.161648
-0.0537677
53.3844
53.3902
53.4024
53.4216
53.4482
53.4815
53.5244
53.5596
53.6396
53.6398
53.7364
53.7441
53.8038
-1.04517
-0.955747
-1.07682
-0.838502
-0.839984
-0.709266
-0.603709
-0.494484
-0.383945
-0.273335
-0.163608
-0.0544178
53.3793
53.3849
53.3967
53.4153
53.4412
53.4739
53.516
53.5516
53.6301
53.6326
53.727
53.7387
53.799
-1.05956
-0.969739
-1.09023
-0.85045
-0.850774
-0.718548
-0.611539
-0.500848
-0.388857
-0.276819
-0.165688
-0.0551078
53.3742
53.3795
53.3909
53.4089
53.434
53.4659
53.5071
53.543
53.6198
53.6245
53.7166
53.7327
53.7934
-1.07458
-0.984289
-1.10416
-0.862886
-0.862008
-0.728218
-0.6197
-0.507483
-0.393979
-0.280453
-0.167857
-0.0558275
53.3691
53.3741
53.385
53.4023
53.4266
53.4576
53.4979
53.5339
53.609
53.6155
53.7055
53.7258
53.7873
-1.08998
-0.999167
-1.1184
-0.875619
-0.873515
-0.738128
-0.628068
-0.514289
-0.399234
-0.284181
-0.170083
-0.0565663
53.3641
53.3689
53.3792
53.3958
53.4192
53.4492
53.4884
53.5245
53.5977
53.6058
53.6941
53.7185
53.7808
-1.10551
-1.01413
-1.13273
-0.888445
-0.885113
-0.748122
-0.636511
-0.521158
-0.40454
-0.287946
-0.172331
-0.0573124
53.3593
53.3638
53.3735
53.3893
53.4118
53.4408
53.4789
53.5149
53.5863
53.5957
53.6826
53.7108
53.7742
-1.12093
-1.02895
-1.14691
-0.901158
-0.896615
-0.758039
-0.644894
-0.527981
-0.409811
-0.291686
-0.174565
-0.058054
53.3548
53.3589
53.3681
53.3831
53.4046
53.4326
53.4696
53.5053
53.5749
53.5856
53.6714
53.7031
53.768
-1.13599
-1.04337
-1.16071
-0.91355
-0.907831
-0.767717
-0.653079
-0.534644
-0.41496
-0.295341
-0.176748
-0.0587788
53.3506
53.3545
53.363
53.3773
53.3978
53.4248
53.4606
53.496
53.5638
53.5756
53.661
53.6959
53.7626
-1.15044
-1.05717
-1.1739
-0.925416
-0.918574
-0.776992
-0.660927
-0.541037
-0.419901
-0.298849
-0.178844
-0.0594745
53.3469
53.3504
53.3584
53.3718
53.3914
53.4174
53.4522
53.4872
53.5534
53.5662
53.6514
53.6895
53.7579
-1.16405
-1.0701
-1.18625
-0.936554
-0.928658
-0.785707
-0.668305
-0.547047
-0.424548
-0.302148
-0.180815
-0.0601292
53.3438
53.3469
53.3542
53.3669
53.3855
53.4106
53.4443
53.479
53.5437
53.5574
53.6429
53.6837
53.754
-1.17659
-1.08199
-1.19757
-0.946781
-0.937913
-0.79371
-0.675083
-0.552571
-0.428819
-0.305182
-0.182628
-0.0607312
53.3413
53.3439
53.3506
53.3625
53.3804
53.4045
53.4374
53.4717
53.535
53.5496
53.6355
53.6786
53.7507
-1.18786
-1.09259
-1.20764
-0.955911
-0.946171
-0.80086
-0.68114
-0.55751
-0.43264
-0.307895
-0.18425
-0.0612698
53.3395
53.3416
53.3476
53.3588
53.3759
53.3993
53.4313
53.4653
53.5275
53.5427
53.6291
53.674
53.7477
-1.19769
-1.10181
-1.21631
-0.963811
-0.953298
-0.807033
-0.68637
-0.561775
-0.435939
-0.310239
-0.18565
-0.0617351
53.3385
53.3399
53.3452
53.3558
53.3723
53.395
53.4264
53.4601
53.5212
53.537
53.6236
53.6697
53.7447
-1.20592
-1.1094
-1.2234
-0.970309
-0.959149
-0.812108
-0.690675
-0.565287
-0.438656
-0.31217
-0.186804
-0.0621185
53.339
53.339
53.3435
53.3536
53.3696
53.3918
53.4226
53.456
53.5164
53.5326
53.6192
53.6658
53.7417
-1.21244
-1.11541
-1.22883
-0.975341
-0.963648
-0.816007
-0.693981
-0.567983
-0.440742
-0.313652
-0.18769
-0.0624127
53.3384
53.3383
53.3424
53.3521
53.3678
53.3896
53.42
53.4533
53.513
53.5295
53.6157
53.6624
53.7387
-1.21715
-1.11941
-1.23247
-0.978754
-0.96669
-0.818639
-0.696221
-0.569811
-0.442157
-0.314657
-0.188291
-0.0626121
53.3455
53.3391
53.3419
53.3515
53.3669
53.3886
53.4188
53.452
53.5113
53.5283
53.6144
53.6586
53.7363
-1.21994
-1.12213
-1.23426
-0.980599
-0.968256
-0.819961
-0.697366
-0.570742
-0.442876
-0.315168
-0.188597
-0.0627128
53.4151
53.414
53.4251
53.4454
53.4738
53.509
53.5536
53.5842
53.6713
53.6516
53.7722
53.7555
53.8075
-0.995464
-0.903829
-1.02264
-0.79016
-0.792185
-0.667858
-0.566863
-0.463226
-0.35887
-0.254935
-0.152284
-0.050529
53.4086
53.4122
53.4242
53.4446
53.473
53.5082
53.5528
53.5836
53.6703
53.6532
53.7661
53.7544
53.808
-0.99627
-0.904957
-1.02452
-0.79158
-0.793578
-0.66908
-0.567867
-0.464042
-0.359498
-0.255378
-0.152548
-0.0506166
53.4058
53.4101
53.4224
53.4429
53.4712
53.5063
53.5509
53.582
53.6682
53.6529
53.7634
53.7531
53.8083
-0.999158
-0.908598
-1.02817
-0.794711
-0.796428
-0.671521
-0.569908
-0.465693
-0.360769
-0.256277
-0.153082
-0.0507938
53.4017
53.4071
53.4199
53.4403
53.4685
53.5035
53.5479
53.5795
53.6648
53.6516
53.7593
53.7516
53.8078
-1.00425
-0.913876
-1.03358
-0.799359
-0.800672
-0.675149
-0.572953
-0.468158
-0.362666
-0.257619
-0.153882
-0.0510587
53.3978
53.4037
53.4166
53.437
53.465
53.4997
53.5439
53.576
53.6603
53.6494
53.7543
53.7493
53.8063
-1.01133
-0.921175
-1.04068
-0.80556
-0.806277
-0.679937
-0.576969
-0.47141
-0.365168
-0.25939
-0.154937
-0.0514082
53.3936
53.3998
53.4127
53.4329
53.4606
53.495
53.5388
53.5714
53.6546
53.646
53.7483
53.7461
53.8038
-1.02025
-0.930093
-1.04937
-0.813174
-0.813152
-0.685816
-0.581907
-0.475408
-0.368246
-0.261568
-0.156236
-0.0518383
53.3891
53.3954
53.4083
53.4281
53.4555
53.4894
53.5328
53.5658
53.6478
53.6414
53.7412
53.7418
53.8002
-1.03089
-0.940677
-1.05955
-0.822136
-0.821225
-0.692722
-0.587707
-0.480105
-0.371861
-0.264127
-0.157761